ITEM: TIMESTEP
0
ITEM: NUMBER OF ATOMS
25
ITEM: BOX BOUNDS pp pp pp
-1.3016965000000001e+01 5.9426649999999999e+00
-5.2902649999999998e+00 3.6353650000000002e+00
-3.8671650000000000e+00 3.9301650000000001e+00
ITEM: ATOMS id type xu yu zu vx vy vz
21 1 -9.6982 -3.6683 -1.2096 0 0 0
11 1 -11.5501 -1.3481 0.4534 0 0 0
22 1 -8.9897 -2.9394 1.8728 0 0 0
2 1 -10.4177 1.8382 -0.2501 0 0 0
5 1 -8.5781 -0.7525 -0.4986 0 0 0
12 1 -9.5129 0.269 2.4633 0 0 0
23 1 -6.4725 -3.1987 -0.3528 0 0 0
6 1 -6.5177 -0.8743 2.0468 0 0 0
13 1 -3.7699 -2.0754 1.052 0 0 0
16 1 -7.8549 1.7589 -2.4003 0 0 0
17 1 -5.5592 -0.1619 -1.0417 0 0 0
3 1 -7.2331 1.9874 0.7826 0 0 0
18 1 -4.0022 1.1832 1.4058 0 0 0
7 1 -3.4699 -2.3263 -2.1227 0 0 0
19 1 -0.3993 -1.2837 -2.164 0 0 0
24 1 -1.1916 -3.6258 -0.1266 0 0 0
1 1 -2.659 0.945 -1.6261 0 0 0
4 1 0.513 1.6275 -1.1537 0 0 0
14 1 -1.1171 -0.3428 0.8836 0 0 0
25 1 1.571 -3.8234 -2.0928 0 0 0
8 1 1.5422 -2.0821 0.6123 0 0 0
9 1 3.6893 2.1685 -0.6253 0 0 0
20 1 2.7489 -0.6442 -2.0059 0 0 0
10 1 4.4758 -0.6905 0.7694 0 0 0
15 1 1.7849 0.9335 1.7361 0 0 0
ITEM: TIMESTEP
25
ITEM: NUMBER OF ATOMS
25
ITEM: BOX BOUNDS pp pp pp
-1.3016965000000001e+01 5.9426649999999999e+00
-5.2902649999999998e+00 3.6353650000000002e+00
-3.8671650000000000e+00 3.9301650000000001e+00
ITEM: ATOMS id type xu yu zu vx vy vz
21 1 -9.46646 -4.00003 -1.11334 0 0 0
11 1 -11.457 -1.45262 0.523679 0 0 0
22 1 -8.85573 -2.985 1.93384 0 0 0
2 1 -10.3849 1.84122 -0.251829 0 0 0
5 1 -8.56185 -0.81663 -0.505131 0 0 0
12 1 -9.44153 0.330143 2.5037 0 0 0
23 1 -6.39791 -3.30079 -0.294363 0 0 0
6 1 -6.47499 -0.765208 2.06969 0 0 0
13 1 -3.74954 -2.07941 1.05724 0 0 0
16 1 -7.93253 1.71836 -2.54032 0 0 0
17 1 -5.55908 -0.152293 -1.06068 0 0 0
3 1 -7.23756 2.15446 0.667144 0 0 0
18 1 -3.99322 1.25465 1.37283 0 0 0
7 1 -3.47987 -2.32177 -2.17056 0 0 0
19 1 -0.377088 -1.33604 -2.14462 0 0 0
24 1 -1.22713 -3.80181 -0.185889 0 0 0
1 1 -2.67416 0.951957 -1.7106 0 0 0
4 1 0.408382 1.76941 -1.14637 0 0 0
14 1 -1.14656 -0.309135 0.858852 0 0 0
25 1 1.54994 -4.08911 -1.95768 0 0 0
8 1 1.49847 -2.07306 0.572047 0 0 0
9 1 3.5319 2.37018 -0.606989 0 0 0
20 1 2.70273 -0.502828 -2.03615 0 0 0
10 1 4.38015 -0.518162 0.776135 0 0 0
15 1 1.67753 0.987304 1.79725 0 0 0
ITEM: TIMESTEP
50
ITEM: NUMBER OF ATOMS
25
ITEM: BOX BOUNDS pp pp pp
-1.3016965000000001e+01 5.9426649999999999e+00
-5.2902649999999998e+00 3.6353650000000002e+00
-3.8671650000000000e+00 3.9301650000000001e+00
ITEM: ATOMS id type xu yu zu vx vy vz
21 1 -9.33323 -4.20172 -1.00871 0 0 0
11 1 -11.451 -1.53075 0.605364 0 0 0
22 1 -8.76843 -2.99508 1.98499 0 0 0
2 1 -10.4515 1.6978 -0.293697 0 0 0
5 1 -8.55157 -0.905879 -0.515 0 0 0
12 1 -9.43486 0.318163 2.48726 0 0 0
23 1 -6.3207 -3.31425 -0.26266 0 0 0
6 1 -6.45136 -0.702611 2.05243 0 0 0
13 1 -3.7227 -2.03945 1.09072 0 0 0
16 1 -7.97794 1.64898 -2.56134 0 0 0
17 1 -5.59059 -0.161186 -1.08027 0 0 0
3 1 -7.29496 2.17751 0.606936 0 0 0
18 1 -3.99324 1.32443 1.2888 0 0 0
7 1 -3.48307 -2.35213 -2.13648 0 0 0
19 1 -0.383429 -1.33783 -2.14123 0 0 0
24 1 -1.21942 -3.80544 -0.15939 0 0 0
1 1 -2.68688 0.923068 -1.76971 0 0 0
4 1 0.350644 1.83193 -1.13052 0 0 0
14 1 -1.14361 -0.270258 0.843298 0 0 0
25 1 1.52247 -4.07404 -1.97426 0 0 0
8 1 1.51422 -2.03191 0.541403 0 0 0
9 1 3.46951 2.47392 -0.555849 0 0 0
20 1 2.6619 -0.371959 -2.04303 0 0 0
10 1 4.40255 -0.436339 0.731562 0 0 0
15 1 1.6692 1.00885 1.80728 0 0 0
ITEM: TIMESTEP
53
ITEM: NUMBER OF ATOMS
25
ITEM: BOX BOUNDS pp pp pp
-1.3016965000000001e+01 5.9426649999999999e+00
-5.2902649999999998e+00 3.6353650000000002e+00
-3.8671650000000000e+00 3.9301650000000001e+00
ITEM: ATOMS id type xu yu zu vx vy vz
21 1 -9.3179 -4.22701 -0.996098 0 0 0
11 1 -11.4467 -1.5414 0.612504 0 0 0
22 1 -8.75926 -2.99711 1.98989 0 0 0
2 1 -10.4603 1.67796 -0.299329 0 0 0
5 1 -8.56264 -0.919835 -0.512933 0 0 0
12 1 -9.43601 0.314691 2.48425 0 0 0
23 1 -6.31167 -3.31688 -0.258402 0 0 0
6 1 -6.44999 -0.696631 2.05181 0 0 0
13 1 -3.71998 -2.03395 1.09553 0 0 0
16 1 -7.98452 1.64043 -2.56392 0 0 0
17 1 -5.58181 -0.159644 -1.08445 0 0 0
3 1 -7.30338 2.178 0.601942 0 0 0
18 1 -3.99449 1.33117 1.27945 0 0 0
7 1 -3.48357 -2.35292 -2.1307 0 0 0
19 1 -0.383359 -1.33558 -2.14178 0 0 0
24 1 -1.21688 -3.80225 -0.155434 0 0 0
1 1 -2.69317 0.92045 -1.77396 0 0 0
4 1 0.345539 1.84193 -1.12784 0 0 0
14 1 -1.14235 -0.265552 0.841938 0 0 0
25 1 1.51946 -4.06984 -1.97827 0 0 0
8 1 1.51747 -2.02628 0.537088 0 0 0
9 1 3.46367 2.48585 -0.551347 0 0 0
20 1 2.65732 -0.356158 -2.04453 0 0 0
10 1 4.40624 -0.426899 0.724818 0 0 0
15 1 1.67023 1.01124 1.80768 0 0 0
ITEM: TIMESTEP
54
ITEM: NUMBER OF ATOMS
25
ITEM: BOX BOUNDS pp pp pp
-1.3016965000000001e+01 5.9426649999999999e+00
-5.2902649999999998e+00 3.6353650000000002e+00
-3.8671650000000000e+00 3.9301650000000001e+00
ITEM: ATOMS id type xu yu zu vx vy vz
21 1 -9.31455 -4.23316 -0.993244 0 0 0
5 1 -8.55231 -0.920832 -0.516131 0 0 0
11 1 -11.45 -1.54473 0.615332 0 0 0
22 1 -8.75704 -2.99826 1.99173 0 0 0
2 1 -10.463 1.67442 -0.300756 0 0 0
12 1 -9.43637 0.314084 2.48418 0 0 0
23 1 -6.31003 -3.31646 -0.257574 0 0 0
13 1 -3.71916 -2.0327 1.09691 0 0 0
16 1 -7.98571 1.63762 -2.56384 0 0 0
17 1 -5.59365 -0.161985 -1.08272 0 0 0
3 1 -7.30508 2.17747 0.600542 0 0 0
18 1 -3.99431 1.33331 1.27847 0 0 0
6 1 -6.44974 -0.695186 2.05055 0 0 0
7 1 -3.48245 -2.35435 -2.12997 0 0 0
19 1 -0.383952 -1.33462 -2.14183 0 0 0
24 1 -1.21633 -3.80133 -0.154526 0 0 0
1 1 -2.68954 0.921303 -1.77569 0 0 0
4 1 0.343184 1.84392 -1.12736 0 0 0
14 1 -1.14218 -0.264332 0.841307 0 0 0
25 1 1.51882 -4.06878 -1.97927 0 0 0
8 1 1.5183 -2.02498 0.536055 0 0 0
9 1 3.46252 2.48876 -0.550312 0 0 0
20 1 2.65639 -0.352398 -2.04497 0 0 0
10 1 4.40765 -0.424821 0.723168 0 0 0
15 1 1.67051 1.01184 1.80783 0 0 0
ITEM: TIMESTEP
55
ITEM: NUMBER OF ATOMS
25
ITEM: BOX BOUNDS pp pp pp
-1.3016965000000001e+01 5.9426649999999999e+00
-5.2902649999999998e+00 3.6353650000000002e+00
-3.8671650000000000e+00 3.9301650000000001e+00
ITEM: ATOMS id type xu yu zu vx vy vz
21 1 -9.30899 -4.24224 -0.988661 0 0 0
5 1 -8.56298 -0.927219 -0.513459 0 0 0
11 1 -11.4463 -1.54848 0.617252 0 0 0
22 1 -8.75379 -2.99884 1.99314 0 0 0
2 1 -10.4659 1.66648 -0.302819 0 0 0
12 1 -9.43691 0.312493 2.48271 0 0 0
23 1 -6.30653 -3.31801 -0.255885 0 0 0
13 1 -3.71827 -2.03063 1.09861 0 0 0
16 1 -7.98835 1.6347 -2.5651 0 0 0
17 1 -5.58332 -0.160074 -1.08555 0 0 0
3 1 -7.30825 2.17752 0.599046 0 0 0
18 1 -3.99507 1.33536 1.27459 0 0 0
6 1 -6.4493 -0.693221 2.051 0 0 0
7 1 -3.48317 -2.35386 -2.12747 0 0 0
19 1 -0.383569 -1.3338 -2.14214 0 0 0
24 1 -1.21524 -3.79995 -0.153009 0 0 0
1 1 -2.69451 0.919753 -1.77671 0 0 0
4 1 0.341883 1.84797 -1.12623 0 0 0
14 1 -1.1416 -0.262667 0.840977 0 0 0
25 1 1.51767 -4.06712 -1.98085 0 0 0
8 1 1.51962 -2.02278 0.534358 0 0 0
9 1 3.46031 2.49323 -0.548737 0 0 0
20 1 2.65464 -0.346415 -2.04557 0 0 0
10 1 4.4089 -0.421152 0.720528 0 0 0
15 1 1.671 1.01274 1.80788 0 0 0
