ITEM: TIMESTEP
10000
ITEM: NUMBER OF ATOMS
96
ITEM: BOX BOUNDS pp pp pp
-1.0903264999999999e+01 1.4354767000000001e+01
-6.3855670000000000e+00 1.4271965000000000e+01
-1.1065267000000000e+01 7.5412670000000004e+00
ITEM: ATOMS id type xu yu zu vx vy vz
77 6 -4.62694 -0.178539 -5.82668 -0.0148586 -0.00308805 -0.00402312
78 6 -4.78401 0.40375 -4.0267 0.0347349 0.00112613 0.0132294
11 1 -4.94552 5.69432 -2.07855 -0.000907206 0.00064576 0.00104025
12 1 -4.84228 8.74536 -2.33782 7.77599e-05 0.00174613 0.000195466
3 1 -6.72269 14.0439 -6.98083 0.00173732 0.000356031 0.000141378
10 1 -6.44257 10.0661 -3.72961 0.00244696 -0.000426157 -0.00236363
5 1 -5.21934 12.0909 -6.35433 0.000773748 0.000331337 0.000873733
4 1 -5.26218 10.7946 -7.35652 0.000306495 -0.000281654 0.00168418
7 1 -5.91568 12.373 -5.4504 -0.00317772 0.000115453 0.000882137
9 1 -7.04309 10.2911 -6.19546 -0.000211906 -0.000629747 -0.00317842
6 1 -5.17807 8.62749 -6.02644 -0.000154206 -0.000992562 -0.00020793
16 1 -5.55533 12.378 0.451603 0.000284103 0.00253053 0.00157053
13 1 -4.70159 6.96626 0.0499863 -0.000895746 -0.00256763 0.00226755
17 1 -6.93558 7.95849 -0.461309 0.00101942 -0.000550516 -0.00305877
15 1 -5.92103 10.2879 -0.697511 -0.000128056 -0.000295671 -0.000832745
14 1 -5.61935 9.97363 -0.270722 -0.00126354 0.00195364 -0.00154474
74 6 -0.246359 0.230435 -6.73075 0.00460047 0.00524718 -0.00583684
76 6 -2.57891 -0.421487 -3.61575 -0.015521 -0.0103033 0.00809523
72 6 0.851317 -1.02491 -3.40748 -0.00225336 0.00205372 -0.000703281
35 4 -0.159349 -0.00934696 -5.64778 -0.00368752 0.000119305 -0.00629732
34 4 1.32993 -0.0732457 -3.72864 0.000474107 0.000942624 6.64228e-05
40 2 -4.22395 -0.0699116 -4.82562 -0.00419171 -0.00974469 -0.00761231
75 6 -0.667082 0.823112 -5.11197 -0.0032305 -0.00589497 0.00345912
32 4 1.32775 0.0226768 -5.28305 0.000889483 0.00489718 -0.00358706
73 6 0.644614 0.664229 -3.25498 0.00244214 0.00986027 -0.0110259
37 2 -2.16043 -1.11287 -5.61693 0.0012456 -0.00215286 -0.00138424
39 2 -2.96616 -0.56265 -4.61895 0.00306799 -0.00565933 0.000253657
36 3 -0.753888 -1.30622 -5.39095 -0.00185029 -0.00435947 -0.00904681
38 5 -2.58681 -1.38221 -6.91176 0.00247361 0.00241099 -0.00716922
69 6 1.31407 2.23388 -5.61766 -0.000626117 0.00341292 -0.000721284
23 1 -0.170188 7.71027 -2.0657 0.000762135 0.00019136 3.20435e-05
22 1 0.194463 10.0024 -2.98197 0.000328068 0.00148877 -0.000814235
2 1 -3.46817 10.4452 -5.60865 -0.000727579 -0.000339355 0.00254891
20 1 0.177677 9.79951 -3.48166 -0.000659023 -0.000684461 -5.94519e-05
18 1 -2.29484 9.69194 -3.0392 0.000229721 -0.00376108 0.00146131
1 1 -3.72679 12.9867 -5.52966 -0.000317988 -0.000931733 -0.00135291
8 1 -4.49078 7.04906 -4.16997 9.59952e-05 0.001282 0.00182592
25 1 -0.0106306 9.6666 -0.466008 0.00117016 0.00128366 -0.00105154
21 1 -2.2926 10.7401 -0.732513 0.000631268 -0.000882823 0.000997681
19 1 -4.28913 11.9057 -1.71243 -0.000186589 -0.000289909 0.0013157
42 4 3.18071 -1.20269 -2.73607 -0.000811888 -0.00163029 0.0063345
43 4 4.68331 -0.998208 -2.39595 0.0013219 -0.000460369 -0.0027956
44 4 5.54802 -0.729395 -3.65647 0.00119732 -0.00217031 -0.0030493
60 5 3.32264 -0.741834 -9.14272 -0.00404135 0.00265923 -0.00297663
59 2 2.89951 -1.60337 -8.14022 -0.00151072 0.00122314 -0.00225003
46 3 4.44305 1.45063 -2.04174 -0.00263051 0.00375328 -0.00383068
91 6 6.49376 -0.513144 -6.65245 0.0181823 0.00914414 -0.00134875
54 2 6.86223 -2.01149 -5.12824 -0.000759098 -0.00241723 0.00118913
33 4 2.07294 -1.17922 -5.955 0.00275223 0.00251352 0.000269607
58 3 1.74371 -1.23905 -7.39374 0.00235234 -0.00015114 0.00373557
82 6 5.17737 0.143483 -4.23834 0.00732437 0.00327412 0.00123124
62 2 4.73186 -3.13745 -8.70667 0.00461763 0.00562831 -0.00264405
88 6 7.53358 -4.54732 -2.65035 0.00883603 -0.00800254 -0.00755678
28 2 3.74895 2.95673 -5.52026 -0.000392141 0.00341734 -0.00574442
71 6 3.16004 -1.00481 -5.79478 0.00194257 -0.000740777 0.00921039
56 2 7.18444 -1.23286 -6.22668 0.00141518 -0.00197629 0.00714077
65 6 5.10869 2.1533 -7.07685 -0.00784799 0.0011183 -0.00967384
41 3 2.65674 0.0659564 -3.20331 0.000514262 0.000397849 -0.000923005
31 4 1.98739 1.37547 -5.83595 -0.00034135 0.00301931 0.00170837
30 3 3.29558 1.62241 -5.24424 -0.00403523 0.00191305 0.00923739
80 6 2.59348 -1.5081 -1.84177 0.0123816 0.00330106 0.0166677
70 6 1.74321 -2.14265 -5.50672 0.0115208 0.00242287 0.0064862
86 6 5.04143 -3.11176 -2.44705 0.00421672 -0.000439649 0.00265873
53 3 5.55341 -1.88512 -4.58159 -0.00614648 -0.0003834 -0.00608498
79 6 3.12551 -1.996 -3.5142 -0.014522 0.00630383 -0.000748665
81 6 6.56286 -0.468824 -3.2822 0.000690856 0.00210863 -0.0046632
96 6 5.11273 -4.14687 -8.59569 0.00877805 0.00758147 0.000794099
61 2 3.62472 -2.78311 -7.97651 0.0011306 0.00252777 0.00743434
94 6 3.24835 -3.43002 -7.19155 0.0074154 0.0100885 0.0167
95 6 5.31851 -2.59997 -9.44374 0.00724481 -0.0112695 -0.0128987
27 2 4.7987 3.00242 -6.47749 0.0012485 -0.00185876 -0.000755658
68 6 2.08641 1.26446 -6.93856 0.00300658 -0.00623414 0.00292479
55 5 7.77692 -2.89984 -4.5577 -0.00254099 6.81426e-05 0.00487315
85 6 5.27845 2.05043 -2.14652 0.00666056 -0.0116907 -0.0180057
84 6 4.19628 0.0340728 -0.494811 -0.00753757 0.00498134 -0.00249411
48 3 6.62678 -2.22165 -1.37267 -0.00386388 -0.00762191 -0.00324811
87 6 4.61339 -2.48876 -0.799043 -0.000384481 -0.00248007 0.00394724
47 4 5.2128 -2.29132 -1.71534 -0.00658492 0.00318242 0.00111222
45 4 4.81322 0.197523 -1.40616 -0.00340723 0.00122325 -0.000364055
83 6 5.85979 0.247321 -1.03189 -0.0106275 0.00475859 0.0193512
50 5 6.89013 -3.64428 0.542107 -0.00287651 0.000865644 -0.00380157
49 2 6.96328 -3.49517 -0.826536 0.000243674 -0.00707722 -8.58289e-05
89 6 7.62117 -6.05241 0.0264951 0.0158871 -0.00817759 0.00350443
52 2 7.80471 -5.78805 -1.00924 0.00141054 -0.00125033 0.0027209
51 2 7.4055 -4.5832 -1.57396 -0.00403626 -0.00265959 -0.00889815
64 6 5.70905 5.06183 -6.32556 0.016447 0.00336032 -0.000250812
63 6 6.48252 4.03991 -7.48107 0.00531758 -0.018938 0.0112309
26 2 5.6517 4.08111 -6.78512 0.00532982 -0.000880267 0.0101632
66 6 4.06739 4.96979 -4.67643 0.00560197 -0.00676095 0.0193429
67 6 2.82302 3.99919 -3.83043 -0.00219178 0.00243196 0.000346493
29 2 3.50462 4.04265 -4.67296 -0.00393085 -0.00107478 -0.00124384
24 1 2.0433 8.8439 -1.70731 0.000334304 0.00148646 -0.000904165
92 6 9.06625 -2.03312 -6.82898 -0.00882929 -0.0037963 0.0135634
57 2 8.36239 -1.22139 -6.97726 -0.000346753 0.00157235 0.00260068
93 6 8.46315 -0.545745 -7.81968 -0.011412 0.00239947 0.00193188
90 6 8.04509 -6.67171 -1.59034 0.0132157 -0.0040037 0.0118028
ITEM: TIMESTEP
11000
ITEM: NUMBER OF ATOMS
96
ITEM: BOX BOUNDS pp pp pp
-1.0972713412365167e+01 1.4424215412365168e+01
-6.4423660728961636e+00 1.4328764072896163e+01
-1.1116426735878026e+01 7.5924267358780249e+00
ITEM: ATOMS id type xu yu zu vx vy vz
6 1 -4.9996 9.37192 -4.63963 0.00157879 0.000134927 0.00129935
12 1 -6.05022 9.26166 -2.38595 0.000132377 -0.00204755 0.000996876
3 1 -5.50642 14.1914 -8.08834 0.000338953 0.000574799 -0.00146464
10 1 -6.50829 9.1481 -4.87844 0.000417619 0.000181539 -0.000459403
5 1 -4.75585 13.2305 -5.87473 -0.000689261 0.00243232 -0.000675343
4 1 -6.0539 11.5673 -5.16682 -0.000332589 0.00159533 0.0018583
7 1 -7.91563 9.84503 -5.66388 0.00129614 -0.000475064 -0.00110677
9 1 -5.81981 11.0003 -6.44478 -0.000297144 0.000733201 0.00108638
14 1 -4.67942 11.4064 -2.22193 0.000797422 -0.00266413 -0.00176387
16 1 -5.22934 12.6657 -0.0861385 0.00120753 -0.00144241 -0.00323065
13 1 -7.07804 5.79181 0.192025 -0.000864517 -0.00260357 -0.000972412
17 1 -6.36379 7.89557 -0.929619 -0.00231568 0.00147609 0.00188369
15 1 -6.71458 10.3007 -0.218807 0.000178867 0.000553372 -0.000286274
11 1 -4.92197 6.06212 -1.1797 -0.00095917 0.00212052 0.00175473
74 6 0.949817 0.740754 -8.65228 0.00608814 -0.00650764 -0.00786056
76 6 -0.189875 -3.51254 -8.71376 0.0192687 -0.00227015 -0.0138242
29 2 0.0132326 1.63056 -3.44394 -0.00560871 -0.000881159 0.00473535
35 4 0.87331 -0.179682 -8.03196 0.000550817 -0.000853156 -0.000138925
80 6 1.60969 -2.64256 -3.93076 -0.00280695 0.00230912 0.00590024
40 2 -1.66478 -3.28368 -10.1711 0.00172442 0.00601571 -0.00667067
75 6 -0.144741 -0.261238 -7.59062 0.00135861 0.00464808 0.0027732
66 6 -0.813894 2.13761 -2.95911 -0.0260857 0.00929088 -0.0407525
73 6 0.809908 -1.21034 -5.44502 -0.00299899 -0.00719359 -0.00208393
37 2 0.0856865 -1.6138 -9.68482 0.00175657 0.00359013 -0.00526595
39 2 -0.561891 -2.84549 -9.48379 0.00584224 0.00078232 -0.00470479
36 3 1.18348 -1.35577 -8.84147 -0.00135275 -0.00645595 -0.00345821
38 5 -0.240249 -0.58784 -10.5909 0.00975449 0.0001468 -0.00230184
69 6 0.411426 1.29806 -6.14723 0.000252932 -0.00313348 0.00164043
31 4 1.52338 1.31358 -6.11308 0.000129333 -0.00173375 0.00588901
78 6 -2.14647 -4.18284 -9.80261 0.0151442 0.00374398 0.00538826
67 6 -0.145481 0.573845 -3.62957 0.00907544 -0.00234076 0.000395418
77 6 -2.12017 -2.56805 -10.847 -0.0116602 0.00350087 -0.000323234
28 2 1.17819 2.15366 -3.96399 -0.00738875 -0.00414094 0.005185
27 2 1.47524 3.492 -3.84803 -0.00814123 -0.0055855 0.00353962
84 6 1.50468 -0.899784 -1.85568 0.000903575 0.0010508 -0.00482881
8 1 -4.08728 7.7794 -2.85242 0.0011741 0.0011926 0.0013285
22 1 -0.322171 9.51105 -3.27891 2.17401e-05 -0.00104 0.00141621
2 1 -3.59844 11.4568 -4.53492 -0.000488096 0.0010135 0.00112478
20 1 -0.314814 9.32345 -3.40519 0.000564073 -0.000886352 -0.000158491
64 6 -0.0695379 4.57212 -2.51437 -0.00647864 -0.00847017 0.00657035
1 1 -2.15485 11.8296 -6.63678 0.00104999 -0.00260563 0.000258143
63 6 1.30463 5.4567 -3.2767 -0.00767948 0.001893 0.0175294
26 2 0.853364 4.49065 -3.0782 -0.00587391 -0.00120209 0.00651893
25 1 0.378714 10.8416 -1.19581 -0.0010479 0.000818309 -0.000786944
21 1 -2.01353 10.4254 -0.398724 -0.000919224 0.000572795 0.000106837
19 1 -4.40161 10.6008 -1.22864 0.000924495 -0.0018129 5.43546e-05
23 1 1.36966 8.61425 -1.63198 0.00190547 0.00154655 -0.000149675
18 1 -1.78459 8.23813 -1.67893 -0.00103111 0.000223417 0.0011504
42 4 2.67426 -2.33014 -4.01405 -0.00390967 0.00322657 -0.00477557
43 4 3.24886 -2.08504 -2.54998 -0.00144515 -0.00242729 0.00265729
44 4 4.75966 -1.87703 -2.61084 -0.000746545 -0.00202198 -0.0036844
60 5 4.55148 -0.295949 -10.0681 0.00268622 0.00370195 -0.00390674
59 2 3.6502 0.742053 -9.72747 -0.000625314 0.000372113 0.000587505
55 5 7.60133 -2.09255 -3.53828 -0.000752412 0.000839886 0.00146369
91 6 5.3449 -3.97768 -5.40731 0.00672594 -0.00700452 0.0132428
54 2 6.45114 -2.8206 -3.92401 -0.000990535 -0.00684544 -0.00788086
33 4 3.3868 0.122189 -7.48356 -0.00328222 0.00312532 -0.00320033
58 3 3.56161 1.25003 -8.4287 0.00233904 -0.00177604 -0.00225462
82 6 5.05667 -0.977493 -3.19435 0.0016539 -0.00713326 -0.0103325
61 2 2.82222 1.33317 -10.6845 -0.00608514 0.00445198 0.000592468
57 2 7.06719 -3.26701 -6.25355 -0.00205698 -0.00158927 0.00158408
68 6 1.84911 2.20887 -6.68771 0.00446255 0.00027756 0.0114859
71 6 4.12648 0.287695 -6.66911 0.00319556 -0.0044535 -0.0075246
56 2 6.2002 -3.34927 -5.18406 0.00118132 0.0043985 0.00252437
46 3 3.07327 0.3469 -2.53718 0.00158337 -0.00615745 -0.00708643
41 3 2.80035 -1.15809 -4.87677 -0.00401822 0.00126361 -0.00661713
93 6 6.75032 -3.63828 -7.22208 -0.0227284 0.00142678 0.00716738
30 3 2.02337 1.32082 -4.73223 -0.00284157 8.9979e-06 0.00266539
94 6 2.1998 2.21179 -10.5545 0.00503154 0.0107124 0.0113967
70 6 3.69534 -0.85442 -7.91819 0.0112567 0.00879432 -0.00568518
86 6 3.22117 -4.29082 -2.35827 -0.00732184 -0.00482946 0.00625935
53 3 5.40223 -3.09477 -3.02293 -0.0016913 -0.00252032 0.00384254
79 6 3.21791 -3.19194 -4.46081 -0.00907115 -0.00851646 0.0114977
65 6 2.34437 3.79084 -4.42389 -0.018416 -0.00856164 -0.0135467
32 4 1.91547 0.0153662 -6.88223 0.0045813 -0.00201295 0.00032214
34 4 1.80814 -1.21177 -5.93633 -0.00229809 -0.00149937 -0.000695753
72 6 1.89469 -2.15988 -6.51205 -0.0119369 0.00190958 -0.00779202
92 6 8.07304 -2.87494 -6.14939 -0.00602821 0.00264632 0.0241141
45 4 2.61635 -0.854832 -1.85018 0.000956441 -0.000484159 -0.00150632
85 6 2.91828 1.0881 -1.83346 -0.00065384 -0.00258559 -0.0113432
48 3 3.7336 -3.37597 -0.53719 5.71855e-05 0.00199946 -0.00029456
87 6 1.8699 -3.52051 -1.54774 0.00127802 -0.00830622 0.00353693
88 6 5.80955 -5.18967 -0.899039 0.00116646 -0.00293095 0.00717555
96 6 2.30869 1.28782 -12.8452 -0.00127126 0.0147295 0.016125
83 6 2.92578 -0.846551 -0.781511 0.00358431 0.00534189 -0.00230843
50 5 2.86667 -5.19255 0.7273 -0.00296313 0.000836571 -0.00064593
49 2 3.87615 -4.67692 -0.0350008 -0.00253917 0.00445551 -0.00212152
51 2 5.0053 -5.44917 -0.219237 0.000105617 0.00233736 0.0079661
95 6 3.25841 -0.113027 -12.2568 0.0164512 0.00242328 0.00436514
62 2 2.75748 0.808799 -11.9818 0.00495633 -0.00335937 0.00284069
81 6 5.20768 -1.61543 -1.62661 0.00264807 0.00530938 -0.00715109
47 4 2.95333 -3.38917 -1.76402 -0.0007359 0.00168634 -0.000607911
24 1 2.00517 10.5021 -3.12295 -0.000593713 0.00125076 -0.00181688
90 6 6.17139 -7.25417 0.0549928 -0.0166653 -0.0176642 -0.0135339
52 2 5.27747 -6.71209 0.343683 -0.00265617 -0.000625636 -0.00211794
89 6 4.61953 -7.12477 1.10072 -0.0141789 -0.0041854 -0.0140673
ITEM: TIMESTEP
12000
ITEM: NUMBER OF ATOMS
96
ITEM: BOX BOUNDS pp pp pp
-1.0724713677652415e+01 1.4176215677652417e+01
-6.2395370300071544e+00 1.4125935030007154e+01
-1.0933735721157500e+01 7.4097357211574995e+00
ITEM: ATOMS id type xu yu zu vx vy vz
9 1 -5.23766 11.2122 -4.85289 0.00192976 0.000153797 0.000298705
12 1 -6.31827 10.3076 -2.72941 0.00115991 0.00226103 -0.000290674
7 1 -7.17619 9.68145 -5.25887 0.00100278 -0.00064447 -0.000844811
10 1 -6.27158 8.90238 -4.81447 -0.00185787 0.000173621 0.00227302
4 1 -5.21311 11.359 -5.14872 -0.000641782 0.000718443 -0.000180568
8 1 -4.58113 8.63512 -3.47215 -0.000475363 0.000946022 6.82547e-05
3 1 -5.27341 13.9542 -7.98607 -0.000129232 -0.00124874 0.00135728
14 1 -5.23131 10.0323 -0.512509 -0.00237285 0.00169132 0.0012398
13 1 -6.78065 6.96701 -1.30033 0.00161313 0.00334803 -0.00141979
17 1 -7.85685 7.76381 0.897513 0.000386795 0.000175092 0.000192768
15 1 -6.31975 8.75168 -0.798493 0.000781709 -0.00129875 -0.000762335
86 6 1.82533 -5.33114 -3.89797 0.0136557 -0.00255174 -0.0025019
79 6 0.884712 -3.92397 -5.79107 -0.000749755 0.00068973 0.00777795
29 2 -2.52916 0.311537 -5.99606 -0.00120074 -0.00482776 -0.00130649
35 4 1.82493 -0.353391 -9.02951 0.00839565 0.00644247 0.00175413
80 6 -0.276478 -3.39193 -4.71264 -0.00976866 0.0067768 -0.00897485
65 6 -0.578068 3.05846 -5.30037 0.00656022 -0.00980893 -0.0192789
75 6 1.04627 -0.942451 -9.56288 -0.00248867 0.017594 0.00528005
66 6 -3.58723 0.515011 -5.8723 -0.000412603 0.00930371 -0.0176148
73 6 0.294708 -2.18378 -7.69692 0.0169453 -0.0109617 -0.000591114
41 3 0.623199 -1.78671 -5.63785 0.00642374 0.00457618 -0.00272251
68 6 0.507186 1.66493 -7.63019 0.00275212 0.00028213 0.00207784
30 3 -0.172198 0.624931 -5.93958 -0.00433593 -0.00141611 -0.00672752
26 2 -2.67057 3.28074 -5.26265 -0.00715168 0.00065612 0.00228401
69 6 -0.525499 0.226441 -8.02491 0.00108526 -0.00211368 -0.00221032
31 4 0.253711 0.622218 -7.33644 0.00382975 -0.00210359 -0.00526858
64 6 -3.68342 2.89854 -5.32814 -0.000514743 -0.0189316 0.0132978
67 6 -2.30431 -0.74933 -6.01134 -0.0267475 -0.0105403 0.0154348
34 4 1.07004 -1.76166 -7.01982 0.00800999 0.0032429 0.000883922
28 2 -1.46318 1.20142 -5.8386 -0.00293675 -0.000628372 -0.00691967
27 2 -1.5079 2.55258 -5.53643 -0.00352285 0.00116998 -0.00312821
32 4 1.47838 -0.294902 -7.50645 -0.00127487 0.00302998 -0.00359541
42 4 0.747652 -3.11084 -5.04419 -0.00502262 0.00416453 0.00324599
87 6 0.648544 -4.69037 -2.801 0.000347575 0.00337409 -0.00539674
84 6 0.244925 -2.27956 -2.48483 0.00970388 -0.00170169 0.0104413
46 3 1.37021 -0.639275 -3.19366 0.00133636 -0.00278787 -0.00123145
45 4 1.29404 -2.02986 -2.75832 0.00580746 0.00246104 -0.000870158
85 6 0.954491 -0.0747224 -2.43405 0.0128229 0.0157634 -0.00868222
43 4 1.72555 -3.09884 -3.83401 -0.00329469 -0.00301897 -0.00350345
47 4 1.67861 -4.49833 -3.175 0.00240226 -0.00364262 -0.00345126
74 6 1.86125 0.687284 -9.42126 0.00673129 0.00576112 -0.000315276
89 6 1.33336 -6.29821 1.486 -0.00727313 -0.00985481 0.000467469
16 1 -4.28503 11.6307 -2.24273 0.000153532 -0.00205983 -0.000508258
22 1 -0.15438 9.00386 -2.58313 0.000799266 -0.000792144 0.000644983
2 1 -2.8134 12.0568 -4.46423 0.00322395 -0.000434767 -0.00100201
20 1 0.762211 8.41758 -2.41357 0.0014563 0.000105427 0.00040501
6 1 -3.30439 9.72445 -5.29469 -0.00086095 -0.000907581 -2.60395e-05
1 1 -3.02983 9.63035 -4.94224 -0.00064324 -0.000164992 0.00179925
63 6 -2.56943 4.33375 -5.02352 -0.0163855 0.00411343 -0.00883761
24 1 0.720617 10.7878 -4.21111 -0.0010591 -0.000465374 -5.14196e-05
5 1 -3.86348 12.3044 -6.65162 0.00162046 -0.00158974 -0.00119332
25 1 -0.838144 11.4056 -2.32082 -0.00262427 -0.000238799 -0.000857769
23 1 1.54935 10.7108 -1.83372 -0.00150286 0.00298153 -0.000915366
18 1 -0.632397 8.17468 -0.281523 0.000981514 0.000422629 0.00150815
21 1 -1.86838 10.3845 -0.247643 -0.00105753 4.90941e-05 0.000166914
19 1 -4.29356 10.0512 -0.274878 -1.76899e-05 -0.000192929 0.00294363
11 1 -4.22816 6.86823 -1.70588 0.000691806 -0.0019611 -0.00329427
52 2 1.57193 -6.89106 0.609731 -0.00607379 -0.00516361 -0.00243752
36 3 3.16713 -0.95969 -9.18258 0.000918262 0.00268817 0.000209761
39 2 3.04611 -2.85005 -10.6408 -0.000964896 -0.00136327 -0.00205237
44 4 3.13058 -2.82083 -4.33303 -0.00542605 0.00159362 -0.000142544
60 5 1.87177 3.52049 -6.90691 -0.00231482 -0.00294911 -0.000744988
59 2 2.79407 2.62106 -6.3646 -0.00150605 0.00653834 0.00523343
55 5 5.91012 -3.79378 -5.18882 0.000691136 -0.000350411 -0.00244859
91 6 3.79835 -3.53744 -7.80645 0.00716259 0.00237607 -0.017694
54 2 4.73237 -3.65903 -5.91728 -0.00224613 0.00472344 -0.0026465
33 4 2.64072 0.271527 -6.6495 -0.00876756 0.00507807 0.00569374
58 3 3.15787 1.52958 -7.18704 0.00219178 -0.00192658 0.00253856
82 6 3.1767 -1.79657 -4.76496 -0.00385252 0.000847831 -0.00184457
61 2 3.32873 2.80505 -5.07183 -0.00290464 -0.00849446 0.0105902
57 2 5.9067 -3.42408 -8.11578 -0.00646124 0.00775264 -0.00222838
81 6 3.89933 -2.86106 -3.52979 -0.00187399 -0.0197227 -0.00451217
71 6 2.35518 0.329232 -5.57576 -0.00871058 0.0181536 0.00504766
56 2 4.77175 -3.5432 -7.32823 -0.000746927 -9.24636e-05 -0.00158567
83 6 1.90195 -2.16745 -1.83674 0.0205821 0.00322735 -0.0104688
93 6 5.85046 -3.08525 -9.1445 -0.0158562 -0.0122855 -0.00831104
72 6 1.95623 -2.40709 -7.20924 0.00366641 -0.00236076 -0.0005692
48 3 2.73948 -4.71731 -2.17121 -0.00317038 -0.00303861 -0.00171742
94 6 4.02237 2.05691 -4.70389 0.00977314 -0.00131765 0.00139318
70 6 3.49051 -0.445189 -6.69384 -0.000873991 0.0129119 0.0295603
76 6 2.65635 -3.47898 -9.84785 0.00695064 -0.0142826 -0.00835359
53 3 3.45173 -3.86412 -5.31606 -0.000773506 0.000501097 -0.00144924
62 2 3.10339 3.88428 -4.21656 -0.00328852 -0.00360755 0.000281416
92 6 6.91061 -3.28223 -7.73071 -0.00168524 0.010406 -0.0155163
37 2 3.28099 -1.4758 -10.4771 0.00380321 -0.0011043 -0.00446701
50 5 1.58669 -4.04607 -0.181549 -0.0111415 0.00132445 0.000292547
40 2 3.1613 -3.47954 -11.8827 0.00501929 -0.00294486 -0.00233384
38 5 3.54114 -0.62408 -11.5519 0.00539247 -0.00524252 0.00641633
77 6 3.58305 -2.98496 -12.7508 0.00474967 0.00979181 0.0047411
49 2 2.1438 -5.07068 -0.930796 -0.00467674 -0.0105444 -0.000950372
78 6 2.98178 -4.53196 -12.0735 0.00481753 -0.00666971 0.0182421
95 6 2.4462 4.74689 -4.20093 -0.00864423 -0.00742051 -0.0137741
96 6 3.5919 3.83454 -3.24955 -0.0255023 -0.00463218 0.0115024
90 6 1.3876 -7.93152 0.854061 0.00469508 -0.00453603 0.00850979
88 6 2.5259 -7.17637 -1.23622 -0.00707685 0.00371862 -0.00555473
51 2 2.11316 -6.42761 -0.568956 -0.00492819 -0.00344659 0.00387119
ITEM: TIMESTEP
13000
ITEM: NUMBER OF ATOMS
96
ITEM: BOX BOUNDS pp pp pp
-1.0606540773176045e+01 1.4058042773176046e+01
-6.1428881479504192e+00 1.4029286147950419e+01
-1.0846682693232802e+01 7.3226826932328013e+00
ITEM: ATOMS id type xu yu zu vx vy vz
9 1 -4.97325 11.3116 -5.20881 -0.000810986 -0.00206953 0.000740549
15 1 -4.51714 8.8273 -1.77064 -0.00127999 0.000300597 9.69866e-05
7 1 -5.82726 9.34265 -6.70783 0.000781206 -0.000360393 -0.00155248
10 1 -7.01629 11.709 -3.7915 0.000757953 0.00301261 0.00380734
4 1 -4.6311 11.1926 -5.58312 0.000865455 0.000381379 -0.00257222
8 1 -5.46395 8.52412 -2.44818 -0.000308243 -0.000436609 -0.000764217
3 1 -5.04958 13.1507 -7.47477 0.000964512 0.000549641 -0.00321003
11 1 -6.05379 6.43698 -3.7028 -0.00182687 0.00234471 -0.00113483
13 1 -4.4652 7.79704 -2.25652 0.000689132 -0.00192538 0.000144699
14 1 -6.40374 11.9366 0.560538 -0.00139827 0.000864419 -0.0016986
17 1 -6.25402 7.35323 -0.609019 0.00067089 -0.00136761 0.000317343
12 1 -5.93881 10.8833 -1.65408 -0.00103781 -0.00147152 0.00222082
60 5 1.18098 3.59652 -5.72796 -0.00442345 -0.0050816 -0.0032275
79 6 0.661814 -3.55298 -5.4535 -0.0274489 -0.0242451 -0.00468257
29 2 -3.02404 -1.06059 -9.89481 -0.00471705 -0.000830511 0.00797508
47 4 -0.1986 -3.95518 -2.86794 -0.0018518 -0.00111319 0.000209324
80 6 -1.05548 -3.29743 -5.32195 -0.00994546 0.00338344 0.00367832
65 6 -2.79844 1.8627 -8.10155 -0.00984908 0.0111538 -0.0105322
86 6 0.502716 -4.7404 -3.22793 0.00438206 0.00901114 -0.00948158
33 4 0.916398 0.788104 -6.92398 -0.00177121 0.0045415 0.00175397
73 6 0.313645 -2.56755 -7.70448 0.00359776 -0.00501364 0.00531324
41 3 -0.0543123 -1.58171 -5.84438 0.000427998 0.000980872 0.000691045
68 6 -0.31562 0.601759 -9.52569 -0.00716398 0.00239121 -0.00138821
30 3 -1.64234 -0.361648 -8.12313 0.0071332 0.00115493 -0.00556701
71 6 -0.0467225 0.801592 -6.367 -0.0184771 0.0191486 -0.0275024
69 6 -0.312641 -1.14305 -9.55441 0.00572412 -0.00819271 0.00689096
31 4 -0.392778 -0.282071 -8.8542 0.00860182 -4.47774e-05 -0.00289392
83 6 -1.057 -1.52426 -1.96151 -0.0064795 0.00460902 0.00309812
67 6 -2.5319 -2.02643 -9.85753 -0.00116777 0.000635083 -0.00238516
34 4 0.750811 -1.75063 -7.08843 0.00461734 -0.00183256 0.000276553
28 2 -2.66132 -0.03451 -9.02981 0.000880217 -0.00214272 -0.00197934
27 2 -3.14681 1.26527 -8.93709 -0.00210946 0.00349483 -0.0082086
32 4 0.801461 -0.402254 -7.91927 -0.00258374 -0.00432448 0.00596426
42 4 -0.0825315 -2.80651 -5.09749 -0.00525731 -0.00404353 -0.000711622
87 6 -1.20943 -4.34445 -3.12231 0.00178338 -0.00274204 -0.0115258
84 6 -1.96626 -1.77118 -3.4532 -0.00229082 -0.00908782 0.00179953
85 6 -1.04614 0.529446 -2.92349 0.00566741 0.0153852 -0.00379468
45 4 -0.956232 -1.50555 -3.06943 -0.00551011 0.000999179 0.00318014
46 3 -0.550948 -0.19086 -3.47548 -0.0107866 0.00233213 -0.00149914
43 4 0.0517479 -2.55887 -3.5606 0.000642536 0.00257624 -0.000919309
58 3 1.02726 2.06306 -7.61 0.00189751 -0.00184551 -0.0038736
26 2 -4.03788 1.84647 -9.83167 -0.00131019 -0.0031911 -0.0012232
66 6 -3.72284 -0.992197 -10.7215 -0.00545776 0.0198944 0.0103956
44 4 1.48125 -2.001 -3.23104 -0.00398097 0.000832113 -0.0079383
81 6 1.55904 -1.6545 -2.17657 0.00117512 0.0124077 -0.0121447
64 6 -4.36101 1.2834 -10.7006 -0.015792 0.00316078 0.000131975
63 6 -4.40385 2.86129 -9.71919 -0.00678475 -0.00538951 0.000286639
50 5 -2.08429 -3.49344 -0.373089 -0.00382198 0.00188118 0.00642155
49 2 -1.01185 -4.30593 -0.677291 0.00281252 0.00284915 0.000754189
89 6 -2.61946 -5.66493 1.08315 -0.00637836 -0.0136738 0.00245034
51 2 -0.952553 -5.63531 -0.269851 -0.00148774 0.00383522 -0.000952115
48 3 0.0406576 -3.8269 -1.4397 -0.00497771 0.00370883 0.00534259
25 1 -1.54276 9.65348 -2.18294 0.000849157 -0.000917198 0.000104205
24 1 0.147815 9.65506 -4.04268 0.00168037 -0.00173145 0.00081652
2 1 -2.31295 10.1606 -6.00403 -0.000210136 -0.00163165 -0.00304208
5 1 -4.28025 10.7322 -7.56641 -0.00166485 -0.00041822 0.00119988
6 1 -3.71123 9.43709 -4.08019 0.000908263 -0.000494297 -0.00270238
1 1 -2.61903 7.69691 -5.73897 -0.00190339 -0.00196995 -0.00233417
23 1 0.0336082 11.5626 -2.40394 -0.00105979 9.3398e-05 0.000757345
18 1 -0.068284 8.84516 0.57029 0.00026236 0.00124886 0.00109691
21 1 -1.83215 10.6242 0.126358 0.00315352 0.000437171 0.000253526
19 1 -3.81284 9.21185 0.577151 0.000615587 -0.000102577 0.000941672
16 1 -4.15037 11.3745 -0.550855 0.000915876 0.00100373 0.00289605
52 2 -1.83538 -6.2275 0.587996 -0.00322912 -0.00276445 -0.0048402
90 6 -1.65141 -7.22907 0.961413 0.00426641 0.00760332 0.019169
88 6 -0.125557 -6.20618 -0.678032 0.00908564 0.0122936 0.00879554
20 1 1.13543 9.45072 -1.54006 -0.000363221 0.00099718 0.00120062
22 1 0.966765 9.36209 -1.65014 0.00133108 0.0013754 0.00149823
36 3 3.27602 -0.407203 -8.0609 0.00322223 0.00359398 0.000157947
74 6 1.98967 0.447489 -9.48794 -0.00364534 0.00242538 0.0145061
70 6 1.7662 0.655412 -6.21811 -0.0137812 0.0227854 0.0196061
92 6 6.24879 -1.2155 -3.49149 -0.0106633 0.00496245 0.00666911
59 2 1.78477 3.02579 -6.84977 0.00315511 0.00368574 -0.00646166
55 5 4.23561 -2.43086 -2.10694 -0.00340415 0.00195054 0.0058478
91 6 3.83297 -1.58137 -5.39723 0.0064348 0.00899162 0.00149346
54 2 3.70857 -2.31061 -3.38683 0.0029929 0.00653233 0.000635381
39 2 5.27529 -1.39045 -8.91173 4.42472e-05 -0.00668453 0.00254333
75 6 2.01912 -1.37994 -9.46382 0.00290675 -0.000566544 -0.00392079
82 6 1.63351 -1.04954 -3.7874 -0.00703665 0.00792284 0.00342168
61 2 3.03862 3.3724 -7.26363 -0.00387303 0.00892251 -0.000516861
57 2 5.5822 -0.995752 -4.31841 -0.00504267 0.00290082 0.00167599
77 6 6.69779 -0.937848 -10.4499 0.00100979 -0.00783374 0.00949453
38 5 4.61097 0.855949 -9.72363 -0.00203847 -0.00211575 9.58311e-05
56 2 4.35799 -1.63805 -4.44983 0.00203312 0.00747582 0.0037764
37 2 4.38608 -0.294747 -8.97328 0.00233265 -0.00165488 0.00402536
93 6 6.05244 -0.634826 -5.22673 0.0234956 -0.0107181 0.0110771
72 6 1.78918 -2.06587 -6.84261 0.00327072 -0.000169307 0.00781155
35 4 2.07392 -0.456779 -8.84513 0.00203788 -0.00521328 0.00298428
94 6 3.28406 2.88467 -8.20082 -0.0295717 0.011988 -0.0088252
96 6 4.83935 4.27948 -7.16723 -0.00723982 0.00301317 -0.00728733
76 6 5.07901 -2.17915 -8.1935 0.0119568 -0.0198728 -0.0087472
53 3 2.47726 -2.95817 -3.61333 0.00264975 0.00870999 -0.00169429
78 6 7.02447 -2.46369 -9.30963 -0.0135142 -0.0177902 0.0189975
40 2 6.43927 -1.61278 -9.64117 0.00224842 -0.0118714 0.00644998
95 6 3.72555 4.70054 -5.67861 -0.0103384 -0.00211341 0.00552912
62 2 3.87659 4.28184 -6.6677 -0.00243872 0.00955656 0.00184822
ITEM: TIMESTEP
14000
ITEM: NUMBER OF ATOMS
96
ITEM: BOX BOUNDS pp pp pp
-1.1225269008990965e+01 1.4676771008990967e+01
-6.6489211726394153e+00 1.4535319172639415e+01
-1.1302473863204044e+01 7.7784738632040433e+00
ITEM: ATOMS id type xu yu zu vx vy vz
9 1 -5.99471 10.5455 -5.27801 0.00116588 -0.00053864 2.72746e-05
11 1 -6.52849 8.37553 -3.4969 0.0010423 -9.83649e-05 0.00251913
7 1 -7.05245 10.4217 -7.49581 -0.00352413 0.00101238 0.000420112
4 1 -4.86436 11.5764 -6.77781 -0.000210689 0.000274741 -6.97082e-05
13 1 -6.07049 5.94315 -2.76753 -0.00209589 0.000296774 0.000193322
8 1 -5.08727 10.409 -3.51998 0.00100739 0.00261501 -0.00107381
5 1 -5.13891 11.6572 -7.40804 0.000897909 0.000409601 -0.000798977
1 1 -5.31805 7.77059 -8.7493 -0.0027146 0.00197542 -0.0018845
14 1 -6.20444 12.4243 0.00732365 0.00244034 -0.00123159 -0.000791671
17 1 -5.90607 6.91749 -0.358961 0.000731392 0.000161455 -0.0020495
12 1 -6.68044 10.4753 -1.55288 0.00112884 -0.000473694 -0.00165364
16 1 -5.2211 12.3518 2.26704 -0.000930911 -0.00134963 -0.000118018
60 5 0.469434 2.25182 -9.68351 0.00155992 -0.00609887 -0.000161327
79 6 -0.135898 -2.16312 -3.81547 -0.00407731 0.00227325 0.000891123
29 2 -2.68033 -1.39829 -8.57377 -0.0045289 -0.00851223 0.00456529
47 4 -2.43511 -2.03902 -2.43777 0.000656341 0.00797211 0.00070982
80 6 -1.2952 -2.76128 -4.99259 -0.0113117 0.0149881 -0.0100143
65 6 -1.50349 1.18175 -10.5151 0.00328675 -0.00918147 -0.0263198
86 6 -1.50801 -2.14596 -1.83196 0.004614 0.00483803 -0.00596387
92 6 1.60534 4.03348 -2.54786 -0.0206243 -0.00384383 0.00447005
73 6 1.00833 -2.43371 -5.94068 -0.0118863 -0.00223682 -0.00224378
41 3 -0.401997 -0.908763 -5.49831 -0.000657629 0.000269699 0.00316955
68 6 0.843751 -0.937524 -9.36259 -0.0106278 0.0035022 -0.0102845
30 3 -0.74828 -0.195326 -8.17407 0.00178304 -8.52282e-05 0.00439195
71 6 0.76652 1.27978 -6.84892 -0.00564309 -0.00668755 -0.00304843
69 6 0.0598861 -2.1642 -8.32614 -0.00562073 -0.00197386 -0.00528698
31 4 0.397481 -1.10447 -8.35714 0.00445001 -0.00520125 -0.00508636
83 6 -4.27061 -0.984841 -4.0604 0.00660048 -0.00207872 0.00395308
67 6 -2.54989 -1.97406 -7.6639 -0.0173702 0.00730477 0.0163812
34 4 0.958558 -1.3262 -5.84622 0.00280216 -0.00172802 -0.000983895
28 2 -1.79378 -0.470505 -9.08694 -8.37663e-05 -0.0039724 -0.00245827
27 2 -2.11369 0.360232 -10.1557 0.0016722 0.00215179 -0.00321854
32 4 1.43015 -0.792449 -7.26207 -0.000471326 -0.00295826 -0.00126547
42 4 -0.945879 -1.82672 -4.50011 -0.00394202 0.00561805 0.00243045
87 6 -2.73481 -3.05306 -2.78399 0.00053284 0.00808245 0.000620172
84 6 -3.60419 -2.30999 -4.98684 -0.00333559 -0.00330901 0.00458413
85 6 -3.50464 0.541287 -5.52597 -0.0204149 -0.0033832 -0.0232048
45 4 -3.38086 -1.26852 -4.66524 0.00489525 -0.00450819 0.00265319
46 3 -3.1766 -0.404822 -5.78285 -0.00154854 -0.00285124 -0.000939907
43 4 -2.14322 -1.19008 -3.71209 -0.00101576 -0.000525469 0.00428658
64 6 -3.93867 -0.452377 -10.9947 0.00534252 0.0031073 -0.0113359
53 3 -0.690763 0.280417 -2.43326 -0.00338029 0.00573821 -0.00217321
66 6 -3.61265 -1.73514 -9.01389 -0.00214706 -0.000548295 -0.00645883
44 4 -1.80302 0.2797 -3.31528 -0.00632666 0.00384961 0.00103084
81 6 -2.64261 0.865909 -2.88006 -0.0103754 -0.0110303 0.0130059
82 6 -1.53995 0.871317 -4.22013 0.010964 -0.00898291 -0.00227376
59 2 1.53466 2.37225 -8.82067 0.000323949 -0.00756057 -0.00166141
26 2 -3.18397 0.326606 -10.9913 0.00790514 0.000539022 -0.000392106
54 2 -0.138411 1.60486 -2.33194 -0.00272323 0.00754546 -0.00486844
57 2 1.54373 3.20227 -3.24189 -0.0094365 -0.00215948 0.00154257
56 2 0.802905 2.03289 -3.22742 -0.00714867 0.00554444 -0.00217806
91 6 1.02837 1.43822 -4.10602 -0.0164642 -0.00392249 0.00191578
50 5 -3.72726 -2.9704 0.132058 -0.000795359 0.00391449 -0.00238259