LAMMPS (3 Nov 2022)
OMP_NUM_THREADS environment is not set. Defaulting to 1 thread. (src/comm.cpp:98)
  using 1 OpenMP thread(s) per MPI task
units                real
atom_style           full
boundary             p p p
dielectric           1
special_bonds        lj/coul 0.0 0.0 1.0

pair_style           lj/charmm/coul/charmm 13 14.00000
bond_style           harmonic
angle_style          hybrid cosine/periodic cosine/squared
dihedral_style       harmonic
improper_style       umbrella
kspace_style         none

read_data            data.combined_aunp_dppa
Reading data file ...
  orthogonal box = (-10.903265 -6.385567 -11.065267) to (14.354767 14.271965 7.541267)
  4 by 2 by 2 MPI processor grid
  reading atoms ...
  96 atoms
  scanning bonds ...
  3 = max bonds/atom
  scanning angles ...
  6 = max angles/atom
  scanning dihedrals ...
  11 = max dihedrals/atom
  scanning impropers ...
  1 = max impropers/atom
  reading bonds ...
  105 bonds
  reading angles ...
  189 angles
  reading dihedrals ...
  150 dihedrals
  reading impropers ...
  4 impropers
Finding 1-2 1-3 1-4 neighbors ...
  special bond factors lj:    0        0        1       
  special bond factors coul:  0        0        1       
     4 = max # of 1-2 neighbors
    12 = max # of 1-3 neighbors
    16 = max # of special neighbors
  special bonds CPU = 0.002 seconds
  read_data CPU = 0.019 seconds



pair_modify          mix geometric
neighbor             2.0 multi
neigh_modify         every 2 delay 4 check yes
thermo_style         multi
thermo_modify        line multi format float %14.6f flush yes

angle_coeff          1 cosine/periodic 4.71844 1 4 # Au4+3 Au4+3 Au4+3
angle_coeff          2 cosine/periodic 35.65005 -1 3 # C_R C_R C_R
angle_coeff          3 cosine/periodic 42.25706 -1 3 # O_3 C_R C_R
angle_coeff          4 cosine/squared 150.53825 104.51000 # C_3 O_3 C_R
angle_coeff          5 cosine/squared 186.38153 109.47120 # O_3 C_3 C_3
angle_coeff          6 cosine/squared 148.75434 109.47120 # C_3 C_3 C_3
angle_coeff          7 cosine/periodic 50.72435 -1 3 # O_3 C_R O_2
angle_coeff          8 cosine/periodic 42.79007 -1 3 # O_2 C_R C_R
angle_coeff          9 cosine/squared 147.82828 104.51000 # C_3 O_3 C_3
angle_coeff          10 cosine/periodic 15.29601 -1 3 # C_R C_R H_
angle_coeff          11 cosine/periodic 7.09435 -1 3 # H_ C_R H_
angle_coeff          12 cosine/squared 86.30243 109.47120 # O_3 C_3 H_
angle_coeff          13 cosine/squared 67.13056 109.47120 # C_3 C_3 H_
angle_coeff          14 cosine/squared 35.33181 109.47120 # H_ C_3 H_
angle_coeff          15 cosine/squared 69.33370 104.51000 # C_3 O_3 H_

variable             input string in.combined_aunp_dppa
variable             sname string combined_aunp_dppa


timestep             1

print                .
.
print                ==========================================
==========================================
print                "500 steps CG Minimization"
500 steps CG Minimization
print                ==========================================
==========================================
print                .
.

dump                 1 all custom 25 ${sname}.min.lammps id type xu yu zu vx vy vz
dump                 1 all custom 25 combined_aunp_dppa.min.lammps id type xu yu zu vx vy vz
thermo               10
min_style            sd
minimize             1.0e-4 1.0e-4 500 5000

CITE-CITE-CITE-CITE-CITE-CITE-CITE-CITE-CITE-CITE-CITE-CITE-CITE

Your simulation uses code contributions which should be cited:

- neighbor multi command: doi:10.1016/j.cpc.2008.03.005, doi:10.1007/s40571-020-00361-2

@Article{Intveld08,
 author =  {in 't Veld, P. J. and S. J.~Plimpton and G. S. Grest},
 title =   {Accurate and Efficient Methods for Modeling Colloidal
            Mixtures in an Explicit Solvent using Molecular Dynamics},
 journal = {Comput.\ Phys.\ Commut.},
 year =    2008,
 volume =  179,
 pages =   {320--329}
}

@article{Shire2020,
 author = {Shire, Tom and Hanley, Kevin J. and Stratford, Kevin},
 title = {{DEM} Simulations of Polydisperse Media: Efficient Contact
          Detection Applied to Investigate the Quasi-Static Limit},
 journal = {Computational Particle Mechanics},
 year = {2020}
}

CITE-CITE-CITE-CITE-CITE-CITE-CITE-CITE-CITE-CITE-CITE-CITE-CITE

Switching to 'neigh_modify every 1 delay 0 check yes' setting during minimization
Generated 15 of 15 mixed pair_coeff terms from geometric mixing rule
Neighbor list info ...
  update: every = 1 steps, delay = 0 steps, check = yes
  max neighbors/atom: 2000, page size: 100000
  master list distance cutoff = 16
  ghost atom cutoff = 16
  binsize = 8, bins = 4 3 3
  1 neighbor lists, perpetual/occasional/extra = 1 0 0
  (1) pair lj/charmm/coul/charmm, perpetual
      attributes: half, newton on
      pair build: half/multi/newton
      stencil: half/multi/3d
      bin: multi
WARNING: Bond/angle/dihedral extent > half of periodic box length (src/domain.cpp:940)
Per MPI rank memory allocation (min/avg/max) = 13.88 | 14.58 | 15.56 Mbytes
------------ Step              0 ----- CPU =            0 (sec) -------------
TotEng   = 1145088530807.425781 KinEng   =       0.000000 Temp     =       0.000000 
PotEng   = 1145088530807.425781 E_bond   =    3442.061611 E_angle  =     106.511092 
E_dihed  =       8.735992 E_impro  =       0.000328 E_vdwl   = 1145088527250.116943 
E_coul   =       0.000000 E_long   =       0.000000 Press    = 32350415096050.347656
------------ Step             10 ----- CPU =  0.003395338 (sec) -------------
TotEng   = 1701810.830948 KinEng   =       0.000000 Temp     =       0.000000 
PotEng   = 1701810.830948 E_bond   =    3474.574688 E_angle  =     107.144194 
E_dihed  =       8.735992 E_impro  =       0.000328 E_vdwl   = 1698220.375746 
E_coul   =       0.000000 E_long   =       0.000000 Press    = 47996757.273998
------------ Step             20 ----- CPU =  0.007185569 (sec) -------------
TotEng   =    1805.438559 KinEng   =       0.000000 Temp     =       0.000000 
PotEng   =    1805.438559 E_bond   =    1573.671896 E_angle  =      86.668836 
E_dihed  =       8.670393 E_impro  =       0.000018 E_vdwl   =     136.427415 
E_coul   =       0.000000 E_long   =       0.000000 Press    =   13953.894079
------------ Step             30 ----- CPU =  0.008921611 (sec) -------------
TotEng   =     287.160610 KinEng   =       0.000000 Temp     =       0.000000 
PotEng   =     287.160610 E_bond   =     129.648261 E_angle  =      70.334684 
E_dihed  =       8.721989 E_impro  =       0.000458 E_vdwl   =      78.455218 
E_coul   =       0.000000 E_long   =       0.000000 Press    =    4438.515810
------------ Step             40 ----- CPU =   0.01172277 (sec) -------------
TotEng   =     127.552620 KinEng   =       0.000000 Temp     =       0.000000 
PotEng   =     127.552620 E_bond   =       8.866930 E_angle  =      67.522725 
E_dihed  =       8.742238 E_impro  =       0.000784 E_vdwl   =      42.419944 
E_coul   =       0.000000 E_long   =       0.000000 Press    =     900.208614
------------ Step             50 ----- CPU =   0.01376416 (sec) -------------
TotEng   =     121.869813 KinEng   =       0.000000 Temp     =       0.000000 
PotEng   =     121.869813 E_bond   =       7.171161 E_angle  =      67.169654 
E_dihed  =       8.754154 E_impro  =       0.000984 E_vdwl   =      38.773861 
E_coul   =       0.000000 E_long   =       0.000000 Press    =     682.874893
------------ Step             60 ----- CPU =   0.01570468 (sec) -------------
TotEng   =     119.003373 KinEng   =       0.000000 Temp     =       0.000000 
PotEng   =     119.003373 E_bond   =       6.684726 E_angle  =      66.835688 
E_dihed  =       8.764716 E_impro  =       0.001209 E_vdwl   =      36.717034 
E_coul   =       0.000000 E_long   =       0.000000 Press    =     564.159684
------------ Step             70 ----- CPU =   0.01762615 (sec) -------------
TotEng   =     117.073482 KinEng   =       0.000000 Temp     =       0.000000 
PotEng   =     117.073482 E_bond   =       6.514300 E_angle  =      66.453014 
E_dihed  =       8.774601 E_impro  =       0.001468 E_vdwl   =      35.330099 
E_coul   =       0.000000 E_long   =       0.000000 Press    =     485.983083
------------ Step             80 ----- CPU =    0.0196465 (sec) -------------
TotEng   =     115.595258 KinEng   =       0.000000 Temp     =       0.000000 
PotEng   =     115.595258 E_bond   =       6.454199 E_angle  =      66.040967 
E_dihed  =       8.784201 E_impro  =       0.001763 E_vdwl   =      34.314128 
E_coul   =       0.000000 E_long   =       0.000000 Press    =     428.987986
------------ Step             90 ----- CPU =    0.0215317 (sec) -------------
TotEng   =     114.398638 KinEng   =       0.000000 Temp     =       0.000000 
PotEng   =     114.398638 E_bond   =       6.436961 E_angle  =      65.624173 
E_dihed  =       8.793556 E_impro  =       0.002087 E_vdwl   =      33.541861 
E_coul   =       0.000000 E_long   =       0.000000 Press    =     385.118234
------------ Step            100 ----- CPU =   0.02350719 (sec) -------------
TotEng   =     113.392631 KinEng   =       0.000000 Temp     =       0.000000 
PotEng   =     113.392631 E_bond   =       6.437756 E_angle  =      65.210950 
E_dihed  =       8.802607 E_impro  =       0.002435 E_vdwl   =      32.938884 
E_coul   =       0.000000 E_long   =       0.000000 Press    =     350.001363
------------ Step            110 ----- CPU =   0.02538301 (sec) -------------
TotEng   =     112.521467 KinEng   =       0.000000 Temp     =       0.000000 
PotEng   =     112.521467 E_bond   =       6.446595 E_angle  =      64.803432 
E_dihed  =       8.811311 E_impro  =       0.002801 E_vdwl   =      32.457327 
E_coul   =       0.000000 E_long   =       0.000000 Press    =     321.023080
------------ Step            120 ----- CPU =   0.02728851 (sec) -------------
TotEng   =     111.749609 KinEng   =       0.000000 Temp     =       0.000000 
PotEng   =     111.749609 E_bond   =       6.459100 E_angle  =      64.402125 
E_dihed  =       8.819651 E_impro  =       0.003183 E_vdwl   =      32.065550 
E_coul   =       0.000000 E_long   =       0.000000 Press    =     296.547341
------------ Step            130 ----- CPU =   0.02925858 (sec) -------------
TotEng   =     111.053754 KinEng   =       0.000000 Temp     =       0.000000 
PotEng   =     111.053754 E_bond   =       6.473218 E_angle  =      64.007268 
E_dihed  =       8.827621 E_impro  =       0.003577 E_vdwl   =      31.742070 
E_coul   =       0.000000 E_long   =       0.000000 Press    =     275.503281
------------ Step            140 ----- CPU =    0.0311154 (sec) -------------
TotEng   =     110.418394 KinEng   =       0.000000 Temp     =       0.000000 
PotEng   =     110.418394 E_bond   =       6.487912 E_angle  =      63.619336 
E_dihed  =       8.835217 E_impro  =       0.003981 E_vdwl   =      31.471948 
E_coul   =       0.000000 E_long   =       0.000000 Press    =     257.165281
------------ Step            150 ----- CPU =   0.03374681 (sec) -------------
TotEng   =     109.832681 KinEng   =       0.000000 Temp     =       0.000000 
PotEng   =     109.832681 E_bond   =       6.502620 E_angle  =      63.238874 
E_dihed  =       8.842441 E_impro  =       0.004392 E_vdwl   =      31.244354 
E_coul   =       0.000000 E_long   =       0.000000 Press    =     241.014326
------------ Step            160 ----- CPU =   0.03567466 (sec) -------------
TotEng   =     109.288735 KinEng   =       0.000000 Temp     =       0.000000 
PotEng   =     109.288735 E_bond   =       6.517044 E_angle  =      62.866395 
E_dihed  =       8.849301 E_impro  =       0.004808 E_vdwl   =      31.051187 
E_coul   =       0.000000 E_long   =       0.000000 Press    =     226.662943
------------ Step            170 ----- CPU =   0.03866179 (sec) -------------
TotEng   =     108.780679 KinEng   =       0.000000 Temp     =       0.000000 
PotEng   =     108.780679 E_bond   =       6.531029 E_angle  =      62.502355 
E_dihed  =       8.855805 E_impro  =       0.005227 E_vdwl   =      30.886263 
E_coul   =       0.000000 E_long   =       0.000000 Press    =     213.814229
------------ Step            180 ----- CPU =   0.04066422 (sec) -------------
TotEng   =     108.304030 KinEng   =       0.000000 Temp     =       0.000000 
PotEng   =     108.304030 E_bond   =       6.544500 E_angle  =      62.147150 
E_dihed  =       8.861962 E_impro  =       0.005648 E_vdwl   =      30.744771 
E_coul   =       0.000000 E_long   =       0.000000 Press    =     202.235608
------------ Step            190 ----- CPU =   0.04634881 (sec) -------------
TotEng   =     107.855288 KinEng   =       0.000000 Temp     =       0.000000 
PotEng   =     107.855288 E_bond   =       6.557430 E_angle  =      61.801100 
E_dihed  =       8.867785 E_impro  =       0.006069 E_vdwl   =      30.622904 
E_coul   =       0.000000 E_long   =       0.000000 Press    =     191.741598
------------ Step            200 ----- CPU =   0.04980415 (sec) -------------
TotEng   =     107.431656 KinEng   =       0.000000 Temp     =       0.000000 
PotEng   =     107.431656 E_bond   =       6.569816 E_angle  =      61.464454 
E_dihed  =       8.873285 E_impro  =       0.006487 E_vdwl   =      30.517613 
E_coul   =       0.000000 E_long   =       0.000000 Press    =     182.182042
------------ Step            210 ----- CPU =   0.05169405 (sec) -------------
TotEng   =     107.030858 KinEng   =       0.000000 Temp     =       0.000000 
PotEng   =     107.030858 E_bond   =       6.581674 E_angle  =      61.137384 
E_dihed  =       8.878475 E_impro  =       0.006903 E_vdwl   =      30.426421 
E_coul   =       0.000000 E_long   =       0.000000 Press    =     173.433678
------------ Step            220 ----- CPU =   0.05362212 (sec) -------------
TotEng   =     106.651214 KinEng   =       0.000000 Temp     =       0.000000 
PotEng   =     106.651214 E_bond   =       6.593036 E_angle  =      60.820155 
E_dihed  =       8.883366 E_impro  =       0.007314 E_vdwl   =      30.347343 
E_coul   =       0.000000 E_long   =       0.000000 Press    =     165.398442
------------ Step            230 ----- CPU =   0.05561736 (sec) -------------
TotEng   =     106.291721 KinEng   =       0.000000 Temp     =       0.000000 
PotEng   =     106.291721 E_bond   =       6.603908 E_angle  =      60.513334 
E_dihed  =       8.887963 E_impro  =       0.007719 E_vdwl   =      30.278797 
E_coul   =       0.000000 E_long   =       0.000000 Press    =     158.002928
------------ Step            240 ----- CPU =   0.05749561 (sec) -------------
TotEng   =     105.951335 KinEng   =       0.000000 Temp     =       0.000000 
PotEng   =     105.951335 E_bond   =       6.614300 E_angle  =      60.217241 
E_dihed  =       8.892275 E_impro  =       0.008115 E_vdwl   =      30.219403 
E_coul   =       0.000000 E_long   =       0.000000 Press    =     151.180791
------------ Step            250 ----- CPU =   0.05947084 (sec) -------------
TotEng   =     105.628936 KinEng   =       0.000000 Temp     =       0.000000 
PotEng   =     105.628936 E_bond   =       6.624231 E_angle  =      59.931935 
E_dihed  =       8.896314 E_impro  =       0.008503 E_vdwl   =      30.167952 
E_coul   =       0.000000 E_long   =       0.000000 Press    =     144.871319
------------ Step            260 ----- CPU =   0.06137131 (sec) -------------
TotEng   =     105.323389 KinEng   =       0.000000 Temp     =       0.000000 
PotEng   =     105.323389 E_bond   =       6.633727 E_angle  =      59.657287 
E_dihed  =       8.900095 E_impro  =       0.008882 E_vdwl   =      30.123398 
E_coul   =       0.000000 E_long   =       0.000000 Press    =     139.020006
------------ Step            270 ----- CPU =   0.06328111 (sec) -------------
TotEng   =     105.033583 KinEng   =       0.000000 Temp     =       0.000000 
PotEng   =     105.033583 E_bond   =       6.642817 E_angle  =      59.393041 
E_dihed  =       8.903631 E_impro  =       0.009250 E_vdwl   =      30.084844 
E_coul   =       0.000000 E_long   =       0.000000 Press    =     133.578253
------------ Step            280 ----- CPU =   0.06526606 (sec) -------------
TotEng   =     104.758450 KinEng   =       0.000000 Temp     =       0.000000 
PotEng   =     104.758450 E_bond   =       6.651530 E_angle  =      59.138851 
E_dihed  =       8.906939 E_impro  =       0.009608 E_vdwl   =      30.051522 
E_coul   =       0.000000 E_long   =       0.000000 Press    =     128.503272
------------ Step            290 ----- CPU =   0.06714179 (sec) -------------
TotEng   =     104.496979 KinEng   =       0.000000 Temp     =       0.000000 
PotEng   =     104.496979 E_bond   =       6.659894 E_angle  =      58.894323 
E_dihed  =       8.910032 E_impro  =       0.009956 E_vdwl   =      30.022775 
E_coul   =       0.000000 E_long   =       0.000000 Press    =     123.757469
------------ Step            300 ----- CPU =   0.06912572 (sec) -------------
TotEng   =     104.248223 KinEng   =       0.000000 Temp     =       0.000000 
PotEng   =     104.248223 E_bond   =       6.667935 E_angle  =      58.659027 
E_dihed  =       8.912925 E_impro  =       0.010292 E_vdwl   =      29.998044 
E_coul   =       0.000000 E_long   =       0.000000 Press    =     119.307840
------------ Step            310 ----- CPU =   0.07101289 (sec) -------------
TotEng   =     104.011298 KinEng   =       0.000000 Temp     =       0.000000 
PotEng   =     104.011298 E_bond   =       6.675679 E_angle  =      58.432519 
E_dihed  =       8.915630 E_impro  =       0.010619 E_vdwl   =      29.976850 
E_coul   =       0.000000 E_long   =       0.000000 Press    =     115.125439
------------ Step            320 ----- CPU =   0.07289031 (sec) -------------
TotEng   =     103.785382 KinEng   =       0.000000 Temp     =       0.000000 
PotEng   =     103.785382 E_bond   =       6.683149 E_angle  =      58.214355 
E_dihed  =       8.918161 E_impro  =       0.010935 E_vdwl   =      29.958782 
E_coul   =       0.000000 E_long   =       0.000000 Press    =     111.184897
------------ Step            330 ----- CPU =   0.07493381 (sec) -------------
TotEng   =     103.569714 KinEng   =       0.000000 Temp     =       0.000000 
PotEng   =     103.569714 E_bond   =       6.690366 E_angle  =      58.004090 
E_dihed  =       8.920528 E_impro  =       0.011242 E_vdwl   =      29.943489 
E_coul   =       0.000000 E_long   =       0.000000 Press    =     107.463835
------------ Step            340 ----- CPU =   0.07682927 (sec) -------------
TotEng   =     103.363587 KinEng   =       0.000000 Temp     =       0.000000 
PotEng   =     103.363587 E_bond   =       6.697349 E_angle  =      57.801292 
E_dihed  =       8.922742 E_impro  =       0.011538 E_vdwl   =      29.930666 
E_coul   =       0.000000 E_long   =       0.000000 Press    =     103.942426
------------ Step            350 ----- CPU =   0.07881041 (sec) -------------
TotEng   =     103.166347 KinEng   =       0.000000 Temp     =       0.000000 
PotEng   =     103.166347 E_bond   =       6.704116 E_angle  =      57.605542 
E_dihed  =       8.924813 E_impro  =       0.011825 E_vdwl   =      29.920051 
E_coul   =       0.000000 E_long   =       0.000000 Press    =     100.603196
------------ Step            360 ----- CPU =   0.08068396 (sec) -------------
TotEng   =     102.977387 KinEng   =       0.000000 Temp     =       0.000000 
PotEng   =     102.977387 E_bond   =       6.710682 E_angle  =      57.416435 
E_dihed  =       8.926750 E_impro  =       0.012103 E_vdwl   =      29.911416 
E_coul   =       0.000000 E_long   =       0.000000 Press    =      97.430575
------------ Step            370 ----- CPU =   0.08256581 (sec) -------------
TotEng   =     102.796143 KinEng   =       0.000000 Temp     =       0.000000 
PotEng   =     102.796143 E_bond   =       6.717063 E_angle  =      57.233583 
E_dihed  =       8.928562 E_impro  =       0.012372 E_vdwl   =      29.904564 
E_coul   =       0.000000 E_long   =       0.000000 Press    =      94.410701
------------ Step            380 ----- CPU =   0.08451868 (sec) -------------
TotEng   =     102.622093 KinEng   =       0.000000 Temp     =       0.000000 
PotEng   =     102.622093 E_bond   =       6.723271 E_angle  =      57.056613 
E_dihed  =       8.930255 E_impro  =       0.012633 E_vdwl   =      29.899320 
E_coul   =       0.000000 E_long   =       0.000000 Press    =      91.531158
------------ Step            390 ----- CPU =   0.08639805 (sec) -------------
TotEng   =     102.454749 KinEng   =       0.000000 Temp     =       0.000000 
PotEng   =     102.454749 E_bond   =       6.729318 E_angle  =      56.885174 
E_dihed  =       8.931838 E_impro  =       0.012886 E_vdwl   =      29.895533 
E_coul   =       0.000000 E_long   =       0.000000 Press    =      88.780731
------------ Step            400 ----- CPU =   0.08837947 (sec) -------------
TotEng   =     102.293660 KinEng   =       0.000000 Temp     =       0.000000 
PotEng   =     102.293660 E_bond   =       6.735217 E_angle  =      56.718926 
E_dihed  =       8.933317 E_impro  =       0.013131 E_vdwl   =      29.893069 
E_coul   =       0.000000 E_long   =       0.000000 Press    =      86.149415
------------ Step            410 ----- CPU =   0.09023585 (sec) -------------
TotEng   =     102.138402 KinEng   =       0.000000 Temp     =       0.000000 
PotEng   =     102.138402 E_bond   =       6.740976 E_angle  =      56.557550 
E_dihed  =       8.934697 E_impro  =       0.013368 E_vdwl   =      29.891810 
E_coul   =       0.000000 E_long   =       0.000000 Press    =      83.628084
------------ Step            420 ----- CPU =    0.0921092 (sec) -------------
TotEng   =     101.988582 KinEng   =       0.000000 Temp     =       0.000000 
PotEng   =     101.988582 E_bond   =       6.746606 E_angle  =      56.400741 
E_dihed  =       8.935985 E_impro  =       0.013599 E_vdwl   =      29.891650 
E_coul   =       0.000000 E_long   =       0.000000 Press    =      81.208437
------------ Step            430 ----- CPU =   0.09406439 (sec) -------------
TotEng   =     101.843831 KinEng   =       0.000000 Temp     =       0.000000 
PotEng   =     101.843831 E_bond   =       6.752116 E_angle  =      56.248209 
E_dihed  =       8.937185 E_impro  =       0.013823 E_vdwl   =      29.892497 
E_coul   =       0.000000 E_long   =       0.000000 Press    =      78.882857
------------ Step            440 ----- CPU =   0.09593068 (sec) -------------
TotEng   =     101.703804 KinEng   =       0.000000 Temp     =       0.000000 
PotEng   =     101.703804 E_bond   =       6.757513 E_angle  =      56.099682 
E_dihed  =       8.938303 E_impro  =       0.014041 E_vdwl   =      29.894266 
E_coul   =       0.000000 E_long   =       0.000000 Press    =      76.644448
------------ Step            450 ----- CPU =   0.09789331 (sec) -------------
TotEng   =     101.568181 KinEng   =       0.000000 Temp     =       0.000000 
PotEng   =     101.568181 E_bond   =       6.762805 E_angle  =      55.954899 
E_dihed  =       8.939342 E_impro  =       0.014253 E_vdwl   =      29.896883 
E_coul   =       0.000000 E_long   =       0.000000 Press    =      74.486822
------------ Step            460 ----- CPU =   0.09975112 (sec) -------------
TotEng   =     101.436660 KinEng   =       0.000000 Temp     =       0.000000 
PotEng   =     101.436660 E_bond   =       6.768001 E_angle  =      55.813614 
E_dihed  =       8.940307 E_impro  =       0.014459 E_vdwl   =      29.900279 
E_coul   =       0.000000 E_long   =       0.000000 Press    =      72.404071
------------ Step            470 ----- CPU =      0.10163 (sec) -------------
TotEng   =     101.308957 KinEng   =       0.000000 Temp     =       0.000000 
PotEng   =     101.308957 E_bond   =       6.773106 E_angle  =      55.675594 
E_dihed  =       8.941201 E_impro  =       0.014660 E_vdwl   =      29.904395 
E_coul   =       0.000000 E_long   =       0.000000 Press    =      70.390836
------------ Step            480 ----- CPU =    0.1035885 (sec) -------------
TotEng   =     101.184808 KinEng   =       0.000000 Temp     =       0.000000 
PotEng   =     101.184808 E_bond   =       6.778127 E_angle  =      55.540621 
E_dihed  =       8.942028 E_impro  =       0.014856 E_vdwl   =      29.909175 
E_coul   =       0.000000 E_long   =       0.000000 Press    =      68.442083
------------ Step            490 ----- CPU =    0.1066884 (sec) -------------
TotEng   =     101.063964 KinEng   =       0.000000 Temp     =       0.000000 
PotEng   =     101.063964 E_bond   =       6.783071 E_angle  =      55.408484 
E_dihed  =       8.942792 E_impro  =       0.015047 E_vdwl   =      29.914570 
E_coul   =       0.000000 E_long   =       0.000000 Press    =      66.553189
------------ Step            500 ----- CPU =    0.1086942 (sec) -------------
TotEng   =     100.946193 KinEng   =       0.000000 Temp     =       0.000000 
PotEng   =     100.946193 E_bond   =       6.787944 E_angle  =      55.278987 
E_dihed  =       8.943495 E_impro  =       0.015234 E_vdwl   =      29.920532 
E_coul   =       0.000000 E_long   =       0.000000 Press    =      64.719809
Loop time of 0.108724 on 16 procs for 500 steps with 96 atoms

99.0% CPU use with 16 MPI tasks x 1 OpenMP threads

Minimization stats:
  Stopping criterion = max iterations
  Energy initial, next-to-last, final = 
      1145088530807.43   100.957878849245    100.94619281031
  Force two-norm initial, final = 5.9693935e+13 5.4561411
  Force max component initial, final = 3.254433e+13 1.2135273
  Final line search alpha, max atom move = 0.049730218 0.060348978
  Iterations, force evaluations = 500 990

MPI task timing breakdown:
Section |  min time  |  avg time  |  max time  |%varavg| %total
---------------------------------------------------------------
Pair    | 0.00023185 | 0.0082714  | 0.045154   |  13.5 |  7.61
Bond    | 0.00017372 | 0.001325   | 0.0065742  |   5.3 |  1.22
Neigh   | 0.0002383  | 0.00025503 | 0.00028145 |   0.0 |  0.23
Comm    | 0.035339   | 0.076294   | 0.090633   |   5.5 | 70.17
Output  | 0.003282   | 0.0034676  | 0.0039944  |   0.3 |  3.19
Modify  | 0          | 0          | 0          |   0.0 |  0.00
Other   |            | 0.01911    |            |       | 17.58

Nlocal:              6 ave          26 max           0 min
Histogram: 8 3 0 3 0 0 0 0 0 2
Nghost:         677.75 ave         832 max         546 min
Histogram: 3 1 2 2 0 1 3 1 1 2
Neighs:        429.812 ave        2192 max           0 min
Histogram: 8 3 1 1 1 0 1 0 0 1

Total # of neighbors = 6877
Ave neighs/atom = 71.635417
Ave special neighs/atom = 5.6458333
Neighbor list builds = 2
Dangerous builds = 0
min_style            cg
minimize             1.0e-4 1.0e-4 500 5000
Switching to 'neigh_modify every 1 delay 0 check yes' setting during minimization
Generated 15 of 15 mixed pair_coeff terms from geometric mixing rule
Per MPI rank memory allocation (min/avg/max) = 13.88 | 14.62 | 15.56 Mbytes
------------ Step            500 ----- CPU =            0 (sec) -------------
TotEng   =     100.946193 KinEng   =       0.000000 Temp     =       0.000000 
PotEng   =     100.946193 E_bond   =       6.787944 E_angle  =      55.278987 
E_dihed  =       8.943495 E_impro  =       0.015234 E_vdwl   =      29.920532 
E_coul   =       0.000000 E_long   =       0.000000 Press    =      64.719809
------------ Step            510 ----- CPU =  0.001794762 (sec) -------------
TotEng   =      96.716039 KinEng   =       0.000000 Temp     =       0.000000 
PotEng   =      96.716039 E_bond   =       7.248267 E_angle  =      49.827676 
E_dihed  =       8.963451 E_impro  =       0.022076 E_vdwl   =      30.654569 
E_coul   =       0.000000 E_long   =       0.000000 Press    =     -99.267470
------------ Step            520 ----- CPU =  0.003646802 (sec) -------------
TotEng   =      94.776308 KinEng   =       0.000000 Temp     =       0.000000 
PotEng   =      94.776308 E_bond   =       7.328574 E_angle  =      47.381820 
E_dihed  =       8.931685 E_impro  =       0.025091 E_vdwl   =      31.109137 
E_coul   =       0.000000 E_long   =       0.000000 Press    =    -156.800628
------------ Step            530 ----- CPU =  0.005601154 (sec) -------------
TotEng   =      93.286523 KinEng   =       0.000000 Temp     =       0.000000 
PotEng   =      93.286523 E_bond   =       7.236268 E_angle  =      45.800110 
E_dihed  =       8.877740 E_impro  =       0.029444 E_vdwl   =      31.342960 
E_coul   =       0.000000 E_long   =       0.000000 Press    =      -4.856945
------------ Step            540 ----- CPU =  0.007663892 (sec) -------------
TotEng   =      91.769494 KinEng   =       0.000000 Temp     =       0.000000 
PotEng   =      91.769494 E_bond   =       7.386494 E_angle  =      44.535695 
E_dihed  =       8.761022 E_impro  =       0.050294 E_vdwl   =      31.035989 
E_coul   =       0.000000 E_long   =       0.000000 Press    =     -71.205124
------------ Step            550 ----- CPU =  0.009676313 (sec) -------------
TotEng   =      89.060869 KinEng   =       0.000000 Temp     =       0.000000 
PotEng   =      89.060869 E_bond   =       7.724712 E_angle  =      43.261490 
E_dihed  =       8.382888 E_impro  =       0.091060 E_vdwl   =      29.600719 
E_coul   =       0.000000 E_long   =       0.000000 Press    =    -148.365139
------------ Step            560 ----- CPU =   0.01173218 (sec) -------------
TotEng   =      85.240086 KinEng   =       0.000000 Temp     =       0.000000 
PotEng   =      85.240086 E_bond   =       8.252301 E_angle  =      42.561013 
E_dihed  =       7.555801 E_impro  =       0.140391 E_vdwl   =      26.730580 
E_coul   =       0.000000 E_long   =       0.000000 Press    =    -451.818780
------------ Step            570 ----- CPU =   0.01358461 (sec) -------------
TotEng   =      80.914815 KinEng   =       0.000000 Temp     =       0.000000 
PotEng   =      80.914815 E_bond   =       7.856196 E_angle  =      41.669378 
E_dihed  =       6.561429 E_impro  =       0.127259 E_vdwl   =      24.700553 
E_coul   =       0.000000 E_long   =       0.000000 Press    =    -435.401357
------------ Step            580 ----- CPU =   0.01570202 (sec) -------------
TotEng   =      77.871316 KinEng   =       0.000000 Temp     =       0.000000 
PotEng   =      77.871316 E_bond   =       6.569134 E_angle  =      40.544457 
E_dihed  =       6.062069 E_impro  =       0.132767 E_vdwl   =      24.562888 
E_coul   =       0.000000 E_long   =       0.000000 Press    =     -67.113840
------------ Step            590 ----- CPU =    0.0175415 (sec) -------------
TotEng   =      75.582406 KinEng   =       0.000000 Temp     =       0.000000 
PotEng   =      75.582406 E_bond   =       6.671017 E_angle  =      39.100139 
E_dihed  =       5.645310 E_impro  =       0.122704 E_vdwl   =      24.043236 
E_coul   =       0.000000 E_long   =       0.000000 Press    =     -93.213539
------------ Step            600 ----- CPU =    0.0196872 (sec) -------------
TotEng   =      73.749724 KinEng   =       0.000000 Temp     =       0.000000 
PotEng   =      73.749724 E_bond   =       6.603874 E_angle  =      38.043206 
E_dihed  =       5.308289 E_impro  =       0.118556 E_vdwl   =      23.675799 
E_coul   =       0.000000 E_long   =       0.000000 Press    =      11.843196
------------ Step            610 ----- CPU =   0.02153867 (sec) -------------
TotEng   =      71.872881 KinEng   =       0.000000 Temp     =       0.000000 
PotEng   =      71.872881 E_bond   =       6.534609 E_angle  =      36.958153 
E_dihed  =       5.116570 E_impro  =       0.108968 E_vdwl   =      23.154582 
E_coul   =       0.000000 E_long   =       0.000000 Press    =     -26.905767
------------ Step            620 ----- CPU =   0.02389494 (sec) -------------
TotEng   =      69.758630 KinEng   =       0.000000 Temp     =       0.000000 
PotEng   =      69.758630 E_bond   =       6.700630 E_angle  =      35.229797 
E_dihed  =       5.122569 E_impro  =       0.063034 E_vdwl   =      22.642601 
E_coul   =       0.000000 E_long   =       0.000000 Press    =     -66.348493
------------ Step            630 ----- CPU =   0.02609587 (sec) -------------
TotEng   =      68.221901 KinEng   =       0.000000 Temp     =       0.000000 
PotEng   =      68.221901 E_bond   =       6.291052 E_angle  =      34.167575 
E_dihed  =       5.069813 E_impro  =       0.052996 E_vdwl   =      22.640466 
E_coul   =       0.000000 E_long   =       0.000000 Press    =       9.455634
------------ Step            640 ----- CPU =   0.02799465 (sec) -------------
TotEng   =      67.021752 KinEng   =       0.000000 Temp     =       0.000000 
PotEng   =      67.021752 E_bond   =       6.274155 E_angle  =      33.331140 
E_dihed  =       5.069834 E_impro  =       0.060969 E_vdwl   =      22.285654 
E_coul   =       0.000000 E_long   =       0.000000 Press    =     -84.301229
------------ Step            650 ----- CPU =   0.03001003 (sec) -------------
TotEng   =      66.072746 KinEng   =       0.000000 Temp     =       0.000000 
PotEng   =      66.072746 E_bond   =       6.526886 E_angle  =      32.510483 
E_dihed  =       5.009463 E_impro  =       0.060862 E_vdwl   =      21.965052 
E_coul   =       0.000000 E_long   =       0.000000 Press    =     -45.092057
------------ Step            660 ----- CPU =   0.03190566 (sec) -------------
TotEng   =      65.394319 KinEng   =       0.000000 Temp     =       0.000000 
PotEng   =      65.394319 E_bond   =       6.672389 E_angle  =      32.548315 
E_dihed  =       4.700944 E_impro  =       0.049641 E_vdwl   =      21.423030 
E_coul   =       0.000000 E_long   =       0.000000 Press    =     -69.934348
------------ Step            670 ----- CPU =   0.03396857 (sec) -------------
TotEng   =      64.505361 KinEng   =       0.000000 Temp     =       0.000000 
PotEng   =      64.505361 E_bond   =       6.608137 E_angle  =      32.372812 
E_dihed  =       4.472377 E_impro  =       0.044951 E_vdwl   =      21.007084 
E_coul   =       0.000000 E_long   =       0.000000 Press    =     -79.872358
------------ Step            680 ----- CPU =   0.03593272 (sec) -------------
TotEng   =      63.568207 KinEng   =       0.000000 Temp     =       0.000000 
PotEng   =      63.568207 E_bond   =       6.468525 E_angle  =      32.040779 
E_dihed  =       4.472047 E_impro  =       0.035590 E_vdwl   =      20.551266 
E_coul   =       0.000000 E_long   =       0.000000 Press    =     -83.937230
------------ Step            690 ----- CPU =   0.03781042 (sec) -------------
TotEng   =      63.001304 KinEng   =       0.000000 Temp     =       0.000000 
PotEng   =      63.001304 E_bond   =       5.941590 E_angle  =      31.465132 
E_dihed  =       4.435256 E_impro  =       0.039010 E_vdwl   =      21.120316 
E_coul   =       0.000000 E_long   =       0.000000 Press    =      35.025617
------------ Step            700 ----- CPU =   0.03977528 (sec) -------------
TotEng   =      62.504713 KinEng   =       0.000000 Temp     =       0.000000 
PotEng   =      62.504713 E_bond   =       5.895900 E_angle  =      30.953757 
E_dihed  =       4.382933 E_impro  =       0.045498 E_vdwl   =      21.226626 
E_coul   =       0.000000 E_long   =       0.000000 Press    =      26.368871
------------ Step            710 ----- CPU =   0.04165829 (sec) -------------
TotEng   =      62.104999 KinEng   =       0.000000 Temp     =       0.000000 
PotEng   =      62.104999 E_bond   =       6.033093 E_angle  =      30.909878 
E_dihed  =       4.414059 E_impro  =       0.039737 E_vdwl   =      20.708232 
E_coul   =       0.000000 E_long   =       0.000000 Press    =     -14.858038
------------ Step            720 ----- CPU =   0.04581248 (sec) -------------
TotEng   =      61.766828 KinEng   =       0.000000 Temp     =       0.000000 
PotEng   =      61.766828 E_bond   =       6.079845 E_angle  =      30.794049 
E_dihed  =       4.423559 E_impro  =       0.046383 E_vdwl   =      20.422992 
E_coul   =       0.000000 E_long   =       0.000000 Press    =     -38.182460
------------ Step            730 ----- CPU =   0.04848589 (sec) -------------
TotEng   =      61.497264 KinEng   =       0.000000 Temp     =       0.000000 
PotEng   =      61.497264 E_bond   =       5.948911 E_angle  =      30.629699 
E_dihed  =       4.366955 E_impro  =       0.038539 E_vdwl   =      20.513159 
E_coul   =       0.000000 E_long   =       0.000000 Press    =       2.139617
------------ Step            740 ----- CPU =   0.05035575 (sec) -------------
TotEng   =      61.286299 KinEng   =       0.000000 Temp     =       0.000000 
PotEng   =      61.286299 E_bond   =       5.898688 E_angle  =      30.643828 
E_dihed  =       4.322528 E_impro  =       0.036089 E_vdwl   =      20.385166 
E_coul   =       0.000000 E_long   =       0.000000 Press    =       2.148612
------------ Step            750 ----- CPU =   0.05233164 (sec) -------------
TotEng   =      61.144415 KinEng   =       0.000000 Temp     =       0.000000 
PotEng   =      61.144415 E_bond   =       6.018117 E_angle  =      30.629035 
E_dihed  =       4.305215 E_impro  =       0.035825 E_vdwl   =      20.156222 
E_coul   =       0.000000 E_long   =       0.000000 Press    =     -39.482546
------------ Step            760 ----- CPU =    0.0546457 (sec) -------------
TotEng   =      61.041647 KinEng   =       0.000000 Temp     =       0.000000 
PotEng   =      61.041647 E_bond   =       6.027964 E_angle  =      30.541969 
E_dihed  =       4.281843 E_impro  =       0.035271 E_vdwl   =      20.154599 
E_coul   =       0.000000 E_long   =       0.000000 Press    =      -2.099586
------------ Step            770 ----- CPU =   0.05650006 (sec) -------------
TotEng   =      60.954475 KinEng   =       0.000000 Temp     =       0.000000 
PotEng   =      60.954475 E_bond   =       5.983048 E_angle  =      30.440661 
E_dihed  =       4.255972 E_impro  =       0.030594 E_vdwl   =      20.244200 
E_coul   =       0.000000 E_long   =       0.000000 Press    =      11.942226
------------ Step            777 ----- CPU =    0.0580453 (sec) -------------
TotEng   =      60.904242 KinEng   =       0.000000 Temp     =       0.000000 
PotEng   =      60.904242 E_bond   =       6.004471 E_angle  =      30.418343 
E_dihed  =       4.249573 E_impro  =       0.030298 E_vdwl   =      20.201557 
E_coul   =       0.000000 E_long   =       0.000000 Press    =       9.372250
Loop time of 0.0589057 on 16 procs for 277 steps with 96 atoms

98.1% CPU use with 16 MPI tasks x 1 OpenMP threads

Minimization stats:
  Stopping criterion = energy tolerance
  Energy initial, next-to-last, final = 
       100.94619281031   60.9102418409913    60.904242271238
  Force two-norm initial, final = 5.4561411 3.3467661
  Force max component initial, final = 1.2135273 0.85991096
  Final line search alpha, max atom move = 0.017292223 0.014869772
  Iterations, force evaluations = 277 552

MPI task timing breakdown:
Section |  min time  |  avg time  |  max time  |%varavg| %total
---------------------------------------------------------------
Pair    | 0.00013314 | 0.0046342  | 0.025535   |  10.4 |  7.87
Bond    | 9.812e-05  | 0.00073841 | 0.0037267  |   0.0 |  1.25
Neigh   | 0.00057776 | 0.00069315 | 0.00079775 |   0.0 |  1.18
Comm    | 0.016676   | 0.038179   | 0.046319   |   4.2 | 64.81
Output  | 0.0017125  | 0.001816   | 0.0021045  |   0.2 |  3.08
Modify  | 0          | 0          | 0          |   0.0 |  0.00
Other   |            | 0.01285    |            |       | 21.81

Nlocal:              6 ave          27 max           0 min
Histogram: 8 2 1 2 1 0 0 0 0 2
Nghost:         692.25 ave         878 max         540 min
Histogram: 2 2 2 2 1 1 2 2 0 2
Neighs:            428 ave        2193 max           0 min
Histogram: 9 2 1 2 0 0 0 1 0 1

Total # of neighbors = 6848
Ave neighs/atom = 71.333333
Ave special neighs/atom = 5.6458333
Neighbor list builds = 6
Dangerous builds = 0
#now                 minimize the entire system
minimize             1.0e-4 1.0e-4 500 5000
Switching to 'neigh_modify every 1 delay 0 check yes' setting during minimization
Generated 15 of 15 mixed pair_coeff terms from geometric mixing rule
Per MPI rank memory allocation (min/avg/max) = 13.88 | 14.63 | 15.56 Mbytes
------------ Step            777 ----- CPU =            0 (sec) -------------
TotEng   =      60.904242 KinEng   =       0.000000 Temp     =       0.000000 
PotEng   =      60.904242 E_bond   =       6.004471 E_angle  =      30.418343 
E_dihed  =       4.249573 E_impro  =       0.030298 E_vdwl   =      20.201557 
E_coul   =       0.000000 E_long   =       0.000000 Press    =       9.372250
------------ Step            778 ----- CPU =  0.000390676 (sec) -------------
TotEng   =      60.900790 KinEng   =       0.000000 Temp     =       0.000000 
PotEng   =      60.900790 E_bond   =       5.993552 E_angle  =      30.414987 
E_dihed  =       4.250362 E_impro  =       0.030511 E_vdwl   =      20.211378 
E_coul   =       0.000000 E_long   =       0.000000 Press    =       6.213055
Loop time of 0.000415401 on 16 procs for 1 steps with 96 atoms

98.7% CPU use with 16 MPI tasks x 1 OpenMP threads

Minimization stats:
  Stopping criterion = energy tolerance
  Energy initial, next-to-last, final = 
       60.904242271238    60.904242271238     60.90079023061
  Force two-norm initial, final = 3.3467661 2.3895712
  Force max component initial, final = 0.85991096 0.66683202
  Final line search alpha, max atom move = 0.11629111 0.077546636
  Iterations, force evaluations = 1 2

MPI task timing breakdown:
Section |  min time  |  avg time  |  max time  |%varavg| %total
---------------------------------------------------------------
Pair    | 1.983e-06  | 2.9163e-05 | 0.00015096 |   0.0 |  7.02
Bond    | 7.01e-07   | 4.5131e-06 | 2.1852e-05 |   0.0 |  1.09
Neigh   | 0          | 0          | 0          |   0.0 |  0.00
Comm    | 7.8267e-05 | 0.00020527 | 0.00025184 |   0.0 | 49.41
Output  | 0          | 0          | 0          |   0.0 |  0.00
Modify  | 0          | 0          | 0          |   0.0 |  0.00
Other   |            | 0.0001765  |            |       | 42.48

Nlocal:              6 ave          26 max           0 min
Histogram: 8 2 1 1 2 0 0 0 0 2
Nghost:          689.5 ave         876 max         536 min
Histogram: 2 2 2 2 1 1 2 2 0 2
Neighs:        428.688 ave        2199 max           0 min
Histogram: 8 3 1 2 0 0 0 1 0 1

Total # of neighbors = 6859
Ave neighs/atom = 71.447917
Ave special neighs/atom = 5.6458333
Neighbor list builds = 0
Dangerous builds = 0
undump               1

print                .
.
print                =====================================
=====================================
print                "NVT dynamics to heat system"
NVT dynamics to heat system
print                =====================================
=====================================
print                .
.

reset_timestep       0
fix                  shakeH all shake 0.0001 20 500 m 1.0079
Finding SHAKE clusters ...
       6 = # of size 2 clusters
      14 = # of size 3 clusters
       0 = # of size 4 clusters
       0 = # of frozen angles
  find clusters CPU = 0.002 seconds
velocity             all create 0.0 12345678 dist uniform
thermo               100
thermo_style         multi
WARNING: New thermo_style command, previous thermo_modify settings will be lost (src/output.cpp:896)
dump                 1 all custom 1000 ${sname}.heat.lammpstrj id type xu yu zu vx vy vz
dump                 1 all custom 1000 combined_aunp_dppa.heat.lammpstrj id type xu yu zu vx vy vz
fix                  4 all nvt temp 1.0 300.0 100.0
run                  10000
Generated 15 of 15 mixed pair_coeff terms from geometric mixing rule
SHAKE stats (type/ave/delta/count) on step 0
Bond:    3   1.08543   0.00268102        17
Bond:    7   1.11755   0.00362524        16
Bond:    9   1.03541   0                  1
Per MPI rank memory allocation (min/avg/max) = 13.63 | 14.36 | 15.31 Mbytes
------------ Step              0 ----- CPU =            0 (sec) -------------
TotEng   =        60.7580 KinEng   =         0.0000 Temp     =         0.0000 
PotEng   =        60.7580 E_bond   =         5.8508 E_angle  =        30.4150 
E_dihed  =         4.2504 E_impro  =         0.0305 E_vdwl   =        20.2114 
E_coul   =         0.0000 E_long   =         0.0000 Press    =         8.2655
------------ Step            100 ----- CPU =    0.0156548 (sec) -------------
TotEng   =        61.0624 KinEng   =         0.0933 Temp     =         0.3740 
PotEng   =        60.9692 E_bond   =         5.8728 E_angle  =        30.4519 
E_dihed  =         4.2556 E_impro  =         0.0356 E_vdwl   =        20.3532 
E_coul   =         0.0000 E_long   =         0.0000 Press    =        -7.0276
------------ Step            200 ----- CPU =   0.02547024 (sec) -------------
TotEng   =        61.1761 KinEng   =         0.2593 Temp     =         1.0397 
PotEng   =        60.9168 E_bond   =         5.9065 E_angle  =        30.3564 
E_dihed  =         4.2585 E_impro  =         0.0343 E_vdwl   =        20.3611 
E_coul   =         0.0000 E_long   =         0.0000 Press    =        -9.9708
------------ Step            300 ----- CPU =   0.03547522 (sec) -------------
TotEng   =        61.4534 KinEng   =         0.4973 Temp     =         1.9942 
PotEng   =        60.9560 E_bond   =         5.8390 E_angle  =        30.3024 
E_dihed  =         4.2546 E_impro  =         0.0275 E_vdwl   =        20.5325 
E_coul   =         0.0000 E_long   =         0.0000 Press    =        11.5973
------------ Step            400 ----- CPU =   0.04564962 (sec) -------------
TotEng   =        61.9483 KinEng   =         0.8062 Temp     =         3.2328 
PotEng   =        61.1421 E_bond   =         6.2220 E_angle  =        30.3827 
E_dihed  =         4.2334 E_impro  =         0.0364 E_vdwl   =        20.2676 
E_coul   =         0.0000 E_long   =         0.0000 Press    =       -52.3424
SHAKE stats (type/ave/delta/count) on step 500
Bond:    3   1.08458   1.14336e-08       17
Bond:    7   1.1126    7.31441e-09       16
Bond:    9   1.03375   0                  1
------------ Step            500 ----- CPU =   0.05552112 (sec) -------------
TotEng   =        62.7527 KinEng   =         1.2956 Temp     =         5.1948 
PotEng   =        61.4571 E_bond   =         6.0261 E_angle  =        30.7077 
E_dihed  =         4.2940 E_impro  =         0.0286 E_vdwl   =        20.4008 
E_coul   =         0.0000 E_long   =         0.0000 Press    =        -5.9757
------------ Step            600 ----- CPU =    0.0652035 (sec) -------------
TotEng   =        64.0502 KinEng   =         2.0490 Temp     =         8.2158 
PotEng   =        62.0012 E_bond   =         5.9034 E_angle  =        31.0036 
E_dihed  =         4.3196 E_impro  =         0.0523 E_vdwl   =        20.7223 
E_coul   =         0.0000 E_long   =         0.0000 Press    =        20.4417
------------ Step            700 ----- CPU =   0.07799815 (sec) -------------
TotEng   =        65.9674 KinEng   =         3.4112 Temp     =        13.6780 
PotEng   =        62.5561 E_bond   =         6.0522 E_angle  =        31.1934 
E_dihed  =         4.4387 E_impro  =         0.0597 E_vdwl   =        20.8121 
E_coul   =         0.0000 E_long   =         0.0000 Press    =       -20.8276
------------ Step            800 ----- CPU =   0.08728825 (sec) -------------
TotEng   =        68.8277 KinEng   =         6.0435 Temp     =        24.2328 
PotEng   =        62.7841 E_bond   =         6.1226 E_angle  =        31.6144 
E_dihed  =         4.4727 E_impro  =         0.0369 E_vdwl   =        20.5375 
E_coul   =         0.0000 E_long   =         0.0000 Press    =       -25.8184
------------ Step            900 ----- CPU =   0.09646585 (sec) -------------
TotEng   =        71.3165 KinEng   =         7.3407 Temp     =        29.4342 
PotEng   =        63.9758 E_bond   =         6.3135 E_angle  =        32.4923 
E_dihed  =         4.3782 E_impro  =         0.0441 E_vdwl   =        20.7477 
E_coul   =         0.0000 E_long   =         0.0000 Press    =        21.5829
SHAKE stats (type/ave/delta/count) on step 1000
Bond:    3   1.08458   1.31096e-08       17
Bond:    7   1.1126    1.45085e-08       16
Bond:    9   1.03375   0                  1
------------ Step           1000 ----- CPU =    0.1067966 (sec) -------------
TotEng   =        73.0721 KinEng   =         7.1974 Temp     =        28.8595 
PotEng   =        65.8747 E_bond   =         6.1437 E_angle  =        33.6367 
E_dihed  =         4.7043 E_impro  =         0.0252 E_vdwl   =        21.3649 
E_coul   =         0.0000 E_long   =         0.0000 Press    =        66.2371
------------ Step           1100 ----- CPU =    0.1158767 (sec) -------------
TotEng   =        75.2659 KinEng   =         9.5891 Temp     =        38.4497 
PotEng   =        65.6768 E_bond   =         6.4011 E_angle  =        33.4220 
E_dihed  =         4.8650 E_impro  =         0.0349 E_vdwl   =        20.9538 
E_coul   =         0.0000 E_long   =         0.0000 Press    =         6.0394
------------ Step           1200 ----- CPU =    0.1282185 (sec) -------------
TotEng   =        75.5335 KinEng   =         9.2218 Temp     =        36.9768 
PotEng   =        66.3118 E_bond   =         6.7263 E_angle  =        34.6793 
E_dihed  =         4.8347 E_impro  =         0.1305 E_vdwl   =        19.9409 
E_coul   =         0.0000 E_long   =         0.0000 Press    =       -83.5790
------------ Step           1300 ----- CPU =    0.1374842 (sec) -------------
TotEng   =        75.8391 KinEng   =         8.0982 Temp     =        32.4714 
PotEng   =        67.7409 E_bond   =         6.3857 E_angle  =        34.3309 
E_dihed  =         5.5110 E_impro  =         0.1045 E_vdwl   =        21.4088 
E_coul   =         0.0000 E_long   =         0.0000 Press    =        63.0181
------------ Step           1400 ----- CPU =    0.1474172 (sec) -------------
TotEng   =        78.5507 KinEng   =        10.8784 Temp     =        43.6192 
PotEng   =        67.6723 E_bond   =         6.7175 E_angle  =        34.4637 
E_dihed  =         5.2097 E_impro  =         0.0694 E_vdwl   =        21.2120 
E_coul   =         0.0000 E_long   =         0.0000 Press    =       -61.2030
SHAKE stats (type/ave/delta/count) on step 1500
Bond:    3   1.08458   2.61908e-08       17
Bond:    7   1.1126    1.21107e-08       16
Bond:    9   1.03375   0                  1
------------ Step           1500 ----- CPU =    0.1628973 (sec) -------------
TotEng   =        81.3189 KinEng   =        11.5157 Temp     =        46.1746 
PotEng   =        69.8032 E_bond   =         6.1222 E_angle  =        34.6052 
E_dihed  =         5.5983 E_impro  =         0.1353 E_vdwl   =        23.3422 
E_coul   =         0.0000 E_long   =         0.0000 Press    =        62.0402
------------ Step           1600 ----- CPU =    0.1721152 (sec) -------------
TotEng   =        83.3360 KinEng   =        12.2434 Temp     =        49.0924 
PotEng   =        71.0926 E_bond   =         7.1373 E_angle  =        36.2064 
E_dihed  =         5.9154 E_impro  =         0.0967 E_vdwl   =        21.7368 
E_coul   =         0.0000 E_long   =         0.0000 Press    =      -115.8519
------------ Step           1700 ----- CPU =    0.1815999 (sec) -------------
TotEng   =        84.8686 KinEng   =        13.5593 Temp     =        54.3688 
PotEng   =        71.3093 E_bond   =         6.5362 E_angle  =        36.0719 
E_dihed  =         5.7174 E_impro  =         0.1381 E_vdwl   =        22.8457 
E_coul   =         0.0000 E_long   =         0.0000 Press    =        11.0522
------------ Step           1800 ----- CPU =    0.1909766 (sec) -------------
TotEng   =        85.1917 KinEng   =        14.6947 Temp     =        58.9214 
PotEng   =        70.4971 E_bond   =         6.7364 E_angle  =        36.8936 
E_dihed  =         5.4148 E_impro  =         0.4205 E_vdwl   =        21.0317 
E_coul   =         0.0000 E_long   =         0.0000 Press    =       -82.8895
------------ Step           1900 ----- CPU =    0.2003577 (sec) -------------
TotEng   =        84.0189 KinEng   =        13.2483 Temp     =        53.1217 
PotEng   =        70.7707 E_bond   =         6.9719 E_angle  =        36.3225 
E_dihed  =         4.5298 E_impro  =         0.1067 E_vdwl   =        22.8397 
E_coul   =         0.0000 E_long   =         0.0000 Press    =      -107.7189
SHAKE stats (type/ave/delta/count) on step 2000
Bond:    3   1.08458   2.9198e-08        17
Bond:    7   1.1126    1.93608e-08       16
Bond:    9   1.03375   0                  1
------------ Step           2000 ----- CPU =    0.2098721 (sec) -------------
TotEng   =        85.1783 KinEng   =         9.2718 Temp     =        37.1773 
PotEng   =        75.9065 E_bond   =         7.2267 E_angle  =        37.9776 
E_dihed  =         5.7623 E_impro  =         0.0318 E_vdwl   =        24.9081 
E_coul   =         0.0000 E_long   =         0.0000 Press    =        15.0462
------------ Step           2100 ----- CPU =     0.220803 (sec) -------------
TotEng   =        90.9029 KinEng   =        16.4918 Temp     =        66.1275 
PotEng   =        74.4111 E_bond   =         6.9690 E_angle  =        38.0734 
E_dihed  =         4.8131 E_impro  =         0.0884 E_vdwl   =        24.4672 
E_coul   =         0.0000 E_long   =         0.0000 Press    =       -66.9721
------------ Step           2200 ----- CPU =    0.2323082 (sec) -------------
TotEng   =        94.5822 KinEng   =        19.9335 Temp     =        79.9276 
PotEng   =        74.6487 E_bond   =         6.5798 E_angle  =        38.8514 
E_dihed  =         4.7876 E_impro  =         0.1591 E_vdwl   =        24.2708 
E_coul   =         0.0000 E_long   =         0.0000 Press    =        61.8808
------------ Step           2300 ----- CPU =    0.2415563 (sec) -------------
TotEng   =        93.1406 KinEng   =        16.5663 Temp     =        66.4263 
PotEng   =        76.5743 E_bond   =         7.3682 E_angle  =        37.6814 
E_dihed  =         5.8070 E_impro  =         0.1264 E_vdwl   =        25.5913 
E_coul   =         0.0000 E_long   =         0.0000 Press    =       -93.5258
------------ Step           2400 ----- CPU =    0.2512946 (sec) -------------
TotEng   =        93.2508 KinEng   =        14.4209 Temp     =        57.8236 
PotEng   =        78.8299 E_bond   =         7.0659 E_angle  =        37.9477 
E_dihed  =         6.1808 E_impro  =         0.1245 E_vdwl   =        27.5110 
E_coul   =         0.0000 E_long   =         0.0000 Press    =        43.6262
SHAKE stats (type/ave/delta/count) on step 2500
Bond:    3   1.08458   5.41951e-08       17
Bond:    7   1.1126    3.91714e-08       16
Bond:    9   1.03375   0                  1
------------ Step           2500 ----- CPU =     0.260177 (sec) -------------
TotEng   =        98.2246 KinEng   =        19.2943 Temp     =        77.3645 
PotEng   =        78.9303 E_bond   =         5.6977 E_angle  =        37.1081 
E_dihed  =         6.4176 E_impro  =         0.1683 E_vdwl   =        29.5386 
E_coul   =         0.0000 E_long   =         0.0000 Press    =       376.5882
------------ Step           2600 ----- CPU =    0.2694252 (sec) -------------
TotEng   =       102.3510 KinEng   =        23.6285 Temp     =        94.7434 
PotEng   =        78.7225 E_bond   =         7.5362 E_angle  =        39.0750 
E_dihed  =         6.3658 E_impro  =         0.0700 E_vdwl   =        25.6756 
E_coul   =         0.0000 E_long   =         0.0000 Press    =       -99.2018
------------ Step           2700 ----- CPU =    0.2813436 (sec) -------------
TotEng   =       100.8930 KinEng   =        19.8389 Temp     =        79.5483 
PotEng   =        81.0540 E_bond   =         6.9256 E_angle  =        40.0073 
E_dihed  =         6.6673 E_impro  =         0.2260 E_vdwl   =        27.2280 
E_coul   =         0.0000 E_long   =         0.0000 Press    =        54.1891
------------ Step           2800 ----- CPU =    0.2898723 (sec) -------------
TotEng   =       100.5592 KinEng   =        20.2488 Temp     =        81.1920 
PotEng   =        80.3104 E_bond   =         8.2239 E_angle  =        41.4985 
E_dihed  =         5.9794 E_impro  =         0.0833 E_vdwl   =        24.5252 
E_coul   =         0.0000 E_long   =         0.0000 Press    =      -284.1184
------------ Step           2900 ----- CPU =    0.3016448 (sec) -------------
TotEng   =       102.4044 KinEng   =        21.2871 Temp     =        85.3552 
PotEng   =        81.1173 E_bond   =         6.4837 E_angle  =        43.2075 
E_dihed  =         5.0787 E_impro  =         0.1460 E_vdwl   =        26.2014 
E_coul   =         0.0000 E_long   =         0.0000 Press    =       174.9793
SHAKE stats (type/ave/delta/count) on step 3000
Bond:    3   1.08458   2.25995e-08       17
Bond:    7   1.1126    1.86519e-08       16
Bond:    9   1.03375   0                  1
------------ Step           3000 ----- CPU =    0.3169638 (sec) -------------
TotEng   =       104.4711 KinEng   =        23.8029 Temp     =        95.4426 
PotEng   =        80.6682 E_bond   =         8.1835 E_angle  =        42.4799 
E_dihed  =         5.8097 E_impro  =         0.1952 E_vdwl   =        23.9999 
E_coul   =         0.0000 E_long   =         0.0000 Press    =      -215.1330
------------ Step           3100 ----- CPU =    0.3263692 (sec) -------------
TotEng   =       103.5887 KinEng   =        23.8155 Temp     =        95.4933 
PotEng   =        79.7733 E_bond   =         6.9831 E_angle  =        40.1474 
E_dihed  =         6.8674 E_impro  =         0.2195 E_vdwl   =        25.5559 
E_coul   =         0.0000 E_long   =         0.0000 Press    =       -55.3161
------------ Step           3200 ----- CPU =    0.3351919 (sec) -------------
TotEng   =       101.8396 KinEng   =        23.6802 Temp     =        94.9506 
PotEng   =        78.1594 E_bond   =         8.2216 E_angle  =        41.5882 
E_dihed  =         5.7827 E_impro  =         0.3192 E_vdwl   =        22.2477 
E_coul   =         0.0000 E_long   =         0.0000 Press    =      -219.7013
------------ Step           3300 ----- CPU =    0.3449172 (sec) -------------
TotEng   =       101.9868 KinEng   =        24.2378 Temp     =        97.1867 
PotEng   =        77.7490 E_bond   =         6.0074 E_angle  =        39.3529 
E_dihed  =         5.2922 E_impro  =         0.1311 E_vdwl   =        26.9653 
E_coul   =         0.0000 E_long   =         0.0000 Press    =       115.6411
------------ Step           3400 ----- CPU =     0.353901 (sec) -------------
TotEng   =       104.4511 KinEng   =        26.6823 Temp     =       106.9883 
PotEng   =        77.7688 E_bond   =         6.8921 E_angle  =        39.4741 
E_dihed  =         5.5400 E_impro  =         0.1087 E_vdwl   =        25.7540 
E_coul   =         0.0000 E_long   =         0.0000 Press    =        16.4694
SHAKE stats (type/ave/delta/count) on step 3500
Bond:    3   1.08458   9.08184e-09       17
Bond:    7   1.1126    9.94085e-09       16
Bond:    9   1.03375   0                  1
------------ Step           3500 ----- CPU =    0.3635539 (sec) -------------
TotEng   =       107.0352 KinEng   =        26.9908 Temp     =       108.2252 
PotEng   =        80.0444 E_bond   =         7.4636 E_angle  =        40.2294 
E_dihed  =         6.2151 E_impro  =         0.1895 E_vdwl   =        25.9468 
E_coul   =         0.0000 E_long   =         0.0000 Press    =       -61.8452
------------ Step           3600 ----- CPU =    0.3755032 (sec) -------------
TotEng   =       107.9730 KinEng   =        29.5430 Temp     =       118.4589 
PotEng   =        78.4300 E_bond   =         7.5333 E_angle  =        38.7734 
E_dihed  =         5.6736 E_impro  =         0.2611 E_vdwl   =        26.1886 
E_coul   =         0.0000 E_long   =         0.0000 Press    =       -50.6664
------------ Step           3700 ----- CPU =    0.3847155 (sec) -------------
TotEng   =       104.1252 KinEng   =        26.9282 Temp     =       107.9742 
PotEng   =        77.1970 E_bond   =         7.3382 E_angle  =        38.5494 
E_dihed  =         5.4031 E_impro  =         0.0573 E_vdwl   =        25.8491 
E_coul   =         0.0000 E_long   =         0.0000 Press    =        38.8996
------------ Step           3800 ----- CPU =    0.3940072 (sec) -------------
TotEng   =       100.5568 KinEng   =        21.8488 Temp     =        87.6075 
PotEng   =        78.7080 E_bond   =         8.3257 E_angle  =        41.7629 
E_dihed  =         6.1071 E_impro  =         0.3457 E_vdwl   =        22.1666 
E_coul   =         0.0000 E_long   =         0.0000 Press    =      -251.9262
------------ Step           3900 ----- CPU =    0.4036441 (sec) -------------
TotEng   =       105.3882 KinEng   =        26.8422 Temp     =       107.6296 
PotEng   =        78.5460 E_bond   =         6.5429 E_angle  =        40.6241 
E_dihed  =         5.7948 E_impro  =         0.0600 E_vdwl   =        25.5242 
E_coul   =         0.0000 E_long   =         0.0000 Press    =       250.5126
SHAKE stats (type/ave/delta/count) on step 4000
Bond:    3   1.08458   4.12234e-08       17
Bond:    7   1.1126    3.21948e-08       16
Bond:    9   1.03375   0                  1
------------ Step           4000 ----- CPU =    0.4127389 (sec) -------------
TotEng   =       109.3966 KinEng   =        28.2208 Temp     =       113.1574 
PotEng   =        81.1758 E_bond   =         8.0138 E_angle  =        43.7520 
E_dihed  =         5.9179 E_impro  =         0.1558 E_vdwl   =        23.3362 
E_coul   =         0.0000 E_long   =         0.0000 Press    =       -92.3302
------------ Step           4100 ----- CPU =     0.423891 (sec) -------------
TotEng   =       114.2384 KinEng   =        30.5099 Temp     =       122.3359 
PotEng   =        83.7285 E_bond   =         5.9851 E_angle  =        43.8579 
E_dihed  =         5.7418 E_impro  =         0.3983 E_vdwl   =        27.7454 
E_coul   =         0.0000 E_long   =         0.0000 Press    =       372.2329
------------ Step           4200 ----- CPU =    0.4335174 (sec) -------------
TotEng   =       117.4917 KinEng   =        35.6247 Temp     =       142.8447 
PotEng   =        81.8670 E_bond   =         6.7633 E_angle  =        42.5424 
E_dihed  =         5.6806 E_impro  =         0.0932 E_vdwl   =        26.7876 
E_coul   =         0.0000 E_long   =         0.0000 Press    =       129.4585
------------ Step           4300 ----- CPU =    0.4419305 (sec) -------------
TotEng   =       115.5300 KinEng   =        29.9893 Temp     =       120.2484 
PotEng   =        85.5407 E_bond   =         8.7116 E_angle  =        45.2644 
E_dihed  =         5.7664 E_impro  =         0.0852 E_vdwl   =        25.7131 
E_coul   =         0.0000 E_long   =         0.0000 Press    =      -141.8841
------------ Step           4400 ----- CPU =    0.4523738 (sec) -------------
TotEng   =       115.9277 KinEng   =        28.5389 Temp     =       114.4327 
PotEng   =        87.3888 E_bond   =         9.5157 E_angle  =        45.4039 
E_dihed  =         6.3767 E_impro  =         0.2509 E_vdwl   =        25.8417 
E_coul   =         0.0000 E_long   =         0.0000 Press    =      -292.2838
SHAKE stats (type/ave/delta/count) on step 4500
Bond:    3   1.08458   1.31071e-07       17
Bond:    7   1.1126    2.91275e-08       16
Bond:    9   1.03375   0                  1
------------ Step           4500 ----- CPU =    0.4667667 (sec) -------------
TotEng   =       124.3131 KinEng   =        36.2753 Temp     =       145.4534 
PotEng   =        88.0379 E_bond   =         7.7872 E_angle  =        45.6487 
E_dihed  =         8.8867 E_impro  =         0.2059 E_vdwl   =        25.5094 
E_coul   =         0.0000 E_long   =         0.0000 Press    =        28.1825
------------ Step           4600 ----- CPU =     0.476204 (sec) -------------
TotEng   =       126.1236 KinEng   =        32.3606 Temp     =       129.7567 
PotEng   =        93.7630 E_bond   =         8.1663 E_angle  =        49.2995 
E_dihed  =         8.0129 E_impro  =         0.2691 E_vdwl   =        28.0152 
E_coul   =         0.0000 E_long   =         0.0000 Press    =       144.6543
------------ Step           4700 ----- CPU =    0.4849716 (sec) -------------
TotEng   =       129.7212 KinEng   =        33.0866 Temp     =       132.6677 
PotEng   =        96.6346 E_bond   =         7.5589 E_angle  =        49.9565 
E_dihed  =         9.1690 E_impro  =         0.3373 E_vdwl   =        29.6129 
E_coul   =         0.0000 E_long   =         0.0000 Press    =       408.3305
------------ Step           4800 ----- CPU =    0.4940138 (sec) -------------
TotEng   =       135.4139 KinEng   =        44.3322 Temp     =       177.7592 
PotEng   =        91.0817 E_bond   =         9.7180 E_angle  =        49.5166 
E_dihed  =         7.3304 E_impro  =         0.0749 E_vdwl   =        24.4417 
E_coul   =         0.0000 E_long   =         0.0000 Press    =      -363.8679
------------ Step           4900 ----- CPU =    0.5034233 (sec) -------------
TotEng   =       130.9820 KinEng   =        38.6331 Temp     =       154.9077 
PotEng   =        92.3489 E_bond   =         8.3176 E_angle  =        48.8950 
E_dihed  =         6.8927 E_impro  =         0.0459 E_vdwl   =        28.1978 
E_coul   =         0.0000 E_long   =         0.0000 Press    =       243.6400
SHAKE stats (type/ave/delta/count) on step 5000
Bond:    3   1.08458   1.57935e-08       17
Bond:    7   1.1126    8.60634e-09       16
Bond:    9   1.03375   0                  1
------------ Step           5000 ----- CPU =    0.5128449 (sec) -------------
TotEng   =       128.7030 KinEng   =        32.7537 Temp     =       131.3329 
PotEng   =        95.9493 E_bond   =         6.1273 E_angle  =        49.7176 
E_dihed  =         6.9159 E_impro  =         0.1325 E_vdwl   =        33.0560 
E_coul   =         0.0000 E_long   =         0.0000 Press    =       634.6091
------------ Step           5100 ----- CPU =    0.5253066 (sec) -------------
TotEng   =       131.1605 KinEng   =        36.3134 Temp     =       145.6064 
PotEng   =        94.8470 E_bond   =         8.6811 E_angle  =        49.9022 
E_dihed  =         8.8336 E_impro  =         0.9832 E_vdwl   =        26.4470 
E_coul   =         0.0000 E_long   =         0.0000 Press    =       -20.5922
------------ Step           5200 ----- CPU =     0.534527 (sec) -------------
TotEng   =       136.4458 KinEng   =        39.8492 Temp     =       159.7838 
PotEng   =        96.5966 E_bond   =         9.6043 E_angle  =        51.6695 
E_dihed  =         8.3377 E_impro  =         0.3341 E_vdwl   =        26.6511 
E_coul   =         0.0000 E_long   =         0.0000 Press    =      -214.5659
------------ Step           5300 ----- CPU =     0.543863 (sec) -------------
TotEng   =       139.6768 KinEng   =        40.3551 Temp     =       161.8123 
PotEng   =        99.3218 E_bond   =         7.4211 E_angle  =        50.9928 
E_dihed  =        10.1554 E_impro  =         0.0717 E_vdwl   =        30.6808 
E_coul   =         0.0000 E_long   =         0.0000 Press    =       454.9946
------------ Step           5400 ----- CPU =    0.5536127 (sec) -------------
TotEng   =       140.5658 KinEng   =        41.8560 Temp     =       167.8306 
PotEng   =        98.7098 E_bond   =         6.3345 E_angle  =        52.3945 
E_dihed  =         7.6477 E_impro  =         0.5321 E_vdwl   =        31.8010 
E_coul   =         0.0000 E_long   =         0.0000 Press    =       640.5316
SHAKE stats (type/ave/delta/count) on step 5500
Bond:    3   1.08458   7.99387e-09       17
Bond:    7   1.1126    5.46825e-09       16
Bond:    9   1.03375   0                  1
------------ Step           5500 ----- CPU =     0.563522 (sec) -------------
TotEng   =       139.5863 KinEng   =        36.0005 Temp     =       144.3518 
PotEng   =       103.5858 E_bond   =        13.4945 E_angle  =        57.0990 
E_dihed  =         8.6132 E_impro  =         0.2866 E_vdwl   =        24.0926 
E_coul   =         0.0000 E_long   =         0.0000 Press    =      -540.5716
------------ Step           5600 ----- CPU =    0.5766951 (sec) -------------
TotEng   =       142.4358 KinEng   =        40.7405 Temp     =       163.3576 
PotEng   =       101.6953 E_bond   =         8.2637 E_angle  =        57.0976 
E_dihed  =         6.7728 E_impro  =         0.3470 E_vdwl   =        29.2142 
E_coul   =         0.0000 E_long   =         0.0000 Press    =       105.8367
------------ Step           5700 ----- CPU =    0.5861721 (sec) -------------
TotEng   =       146.4150 KinEng   =        44.3306 Temp     =       177.7528 
PotEng   =       102.0844 E_bond   =         7.6281 E_angle  =        53.9337 
E_dihed  =         7.9093 E_impro  =         0.4994 E_vdwl   =        32.1140 
E_coul   =         0.0000 E_long   =         0.0000 Press    =       500.7214
------------ Step           5800 ----- CPU =    0.5957882 (sec) -------------
TotEng   =       149.3625 KinEng   =        53.1158 Temp     =       212.9790 
PotEng   =        96.2467 E_bond   =        10.9882 E_angle  =        50.6398 
E_dihed  =         7.7720 E_impro  =         0.1133 E_vdwl   =        26.7335 
E_coul   =         0.0000 E_long   =         0.0000 Press    =      -215.7564
------------ Step           5900 ----- CPU =    0.6101836 (sec) -------------
TotEng   =       142.0370 KinEng   =        39.7198 Temp     =       159.2649 
PotEng   =       102.3173 E_bond   =        10.7874 E_angle  =        52.1363 
E_dihed  =        12.1355 E_impro  =         0.3060 E_vdwl   =        26.9520 
E_coul   =         0.0000 E_long   =         0.0000 Press    =      -201.0854
SHAKE stats (type/ave/delta/count) on step 6000
Bond:    3   1.08458   4.4133e-09        17
Bond:    7   1.1126    5.0609e-09        16
Bond:    9   1.03375   0                  1
------------ Step           6000 ----- CPU =    0.6211888 (sec) -------------
TotEng   =       137.7938 KinEng   =        41.5280 Temp     =       166.5153 
PotEng   =        96.2658 E_bond   =        12.3998 E_angle  =        55.1711 
E_dihed  =         7.1533 E_impro  =         0.3518 E_vdwl   =        21.1898 
E_coul   =         0.0000 E_long   =         0.0000 Press    =      -451.7000
------------ Step           6100 ----- CPU =    0.6302078 (sec) -------------
TotEng   =       142.6505 KinEng   =        46.2095 Temp     =       185.2868 
PotEng   =        96.4411 E_bond   =         6.5008 E_angle  =        47.7939 
E_dihed  =         7.9200 E_impro  =         0.1119 E_vdwl   =        34.1145 
E_coul   =         0.0000 E_long   =         0.0000 Press    =       765.4267
------------ Step           6200 ----- CPU =    0.6393994 (sec) -------------
TotEng   =       150.0508 KinEng   =        52.8034 Temp     =       211.7263 
PotEng   =        97.2474 E_bond   =        10.7695 E_angle  =        51.9276 
E_dihed  =        10.0957 E_impro  =         0.4294 E_vdwl   =        24.0253 
E_coul   =         0.0000 E_long   =         0.0000 Press    =      -146.0081
------------ Step           6300 ----- CPU =    0.6487635 (sec) -------------
TotEng   =       148.3667 KinEng   =        48.3915 Temp     =       194.0360 
PotEng   =        99.9752 E_bond   =         9.6461 E_angle  =        54.2927 
E_dihed  =         7.6796 E_impro  =         0.3689 E_vdwl   =        27.9879 
E_coul   =         0.0000 E_long   =         0.0000 Press    =       -59.4876
------------ Step           6400 ----- CPU =    0.6586201 (sec) -------------
TotEng   =       148.2484 KinEng   =        44.4110 Temp     =       178.0754 
PotEng   =       103.8374 E_bond   =        10.1292 E_angle  =        61.1832 
E_dihed  =         7.4211 E_impro  =         0.4081 E_vdwl   =        24.6959 
E_coul   =         0.0000 E_long   =         0.0000 Press    =      -300.6691
SHAKE stats (type/ave/delta/count) on step 6500
Bond:    3   1.08458   1.17548e-06       17
Bond:    7   1.1126    2.24348e-07       16
Bond:    9   1.03375   0                  1
------------ Step           6500 ----- CPU =    0.6697596 (sec) -------------
TotEng   =       156.1621 KinEng   =        50.6552 Temp     =       203.1127 
PotEng   =       105.5069 E_bond   =         9.2830 E_angle  =        58.5507 
E_dihed  =         8.4117 E_impro  =         0.6504 E_vdwl   =        28.6111 
E_coul   =         0.0000 E_long   =         0.0000 Press    =        47.0500
------------ Step           6600 ----- CPU =    0.6818091 (sec) -------------
TotEng   =       163.5442 KinEng   =        60.7419 Temp     =       243.5575 
PotEng   =       102.8023 E_bond   =         9.8554 E_angle  =        58.5383 
E_dihed  =         8.2478 E_impro  =         0.2055 E_vdwl   =        25.9553 
E_coul   =         0.0000 E_long   =         0.0000 Press    =       284.9862
------------ Step           6700 ----- CPU =    0.6917757 (sec) -------------
TotEng   =       157.4478 KinEng   =        57.3176 Temp     =       229.8272 
PotEng   =       100.1302 E_bond   =        11.6368 E_angle  =        55.0078 
E_dihed  =        10.7068 E_impro  =         0.0966 E_vdwl   =        22.6822 
E_coul   =         0.0000 E_long   =         0.0000 Press    =      -432.9172
------------ Step           6800 ----- CPU =    0.7024497 (sec) -------------
TotEng   =       151.1548 KinEng   =        49.5642 Temp     =       198.7380 
PotEng   =       101.5906 E_bond   =         9.6509 E_angle  =        51.8013 
E_dihed  =        10.8766 E_impro  =         0.6972 E_vdwl   =        28.5647 
E_coul   =         0.0000 E_long   =         0.0000 Press    =       -69.3564
------------ Step           6900 ----- CPU =    0.7132254 (sec) -------------
TotEng   =       148.6351 KinEng   =        50.7642 Temp     =       203.5500 
PotEng   =        97.8709 E_bond   =         8.9945 E_angle  =        52.6676 
E_dihed  =        10.4327 E_impro  =         0.3445 E_vdwl   =        25.4316 
E_coul   =         0.0000 E_long   =         0.0000 Press    =      -126.6479
SHAKE stats (type/ave/delta/count) on step 7000
Bond:    3   1.08458   1.97726e-07       17
Bond:    7   1.1126    7.14163e-08       16
Bond:    9   1.03375   0                  1
------------ Step           7000 ----- CPU =    0.7273556 (sec) -------------
TotEng   =       150.3937 KinEng   =        54.3669 Temp     =       217.9956 
PotEng   =        96.0268 E_bond   =         7.8538 E_angle  =        52.5352 
E_dihed  =         8.2001 E_impro  =         0.5001 E_vdwl   =        26.9375 
E_coul   =         0.0000 E_long   =         0.0000 Press    =       528.4455
------------ Step           7100 ----- CPU =    0.7385023 (sec) -------------
TotEng   =       162.0087 KinEng   =        60.2801 Temp     =       241.7060 
PotEng   =       101.7286 E_bond   =         9.0033 E_angle  =        54.9996 
E_dihed  =         8.1360 E_impro  =         0.7891 E_vdwl   =        28.8007 
E_coul   =         0.0000 E_long   =         0.0000 Press    =       289.5512
------------ Step           7200 ----- CPU =    0.7508942 (sec) -------------
TotEng   =       165.1882 KinEng   =        57.9349 Temp     =       232.3022 
PotEng   =       107.2533 E_bond   =        14.2148 E_angle  =        57.5929 
E_dihed  =        10.3808 E_impro  =         1.1004 E_vdwl   =        23.9645 
E_coul   =         0.0000 E_long   =         0.0000 Press    =      -555.4761
------------ Step           7300 ----- CPU =    0.7665849 (sec) -------------
TotEng   =       160.4296 KinEng   =        58.2310 Temp     =       233.4894 
PotEng   =       102.1987 E_bond   =         7.7286 E_angle  =        52.3668 
E_dihed  =         8.6607 E_impro  =         0.6933 E_vdwl   =        32.7492 
E_coul   =         0.0000 E_long   =         0.0000 Press    =       581.7551
------------ Step           7400 ----- CPU =    0.7768175 (sec) -------------
TotEng   =       157.7273 KinEng   =        52.1665 Temp     =       209.1727 
PotEng   =       105.5608 E_bond   =         9.2980 E_angle  =        56.6138 
E_dihed  =        10.9048 E_impro  =         0.2521 E_vdwl   =        28.4921 
E_coul   =         0.0000 E_long   =         0.0000 Press    =       -51.7122
SHAKE stats (type/ave/delta/count) on step 7500
Bond:    3   1.08458   1.92517e-07       17
Bond:    7   1.1126    2.26379e-07       16
Bond:    9   1.03375   0                  1
------------ Step           7500 ----- CPU =    0.7865974 (sec) -------------
TotEng   =       161.1685 KinEng   =        55.3732 Temp     =       222.0305 
PotEng   =       105.7954 E_bond   =        11.7550 E_angle  =        55.1127 
E_dihed  =         9.2993 E_impro  =         0.1501 E_vdwl   =        29.4783 
E_coul   =         0.0000 E_long   =         0.0000 Press    =      -165.0066
------------ Step           7600 ----- CPU =    0.7961305 (sec) -------------
TotEng   =       165.1152 KinEng   =        55.3628 Temp     =       221.9889 
PotEng   =       109.7524 E_bond   =        12.4372 E_angle  =        57.4334 
E_dihed  =        10.8162 E_impro  =         1.2417 E_vdwl   =        27.8239 
E_coul   =         0.0000 E_long   =         0.0000 Press    =      -165.2073
------------ Step           7700 ----- CPU =     0.806408 (sec) -------------
TotEng   =       163.1860 KinEng   =        55.4224 Temp     =       222.2280 
PotEng   =       107.7635 E_bond   =         8.9038 E_angle  =        55.4685 
E_dihed  =        12.4565 E_impro  =         0.9759 E_vdwl   =        29.9587 
E_coul   =         0.0000 E_long   =         0.0000 Press    =       131.7908
------------ Step           7800 ----- CPU =     0.816486 (sec) -------------
TotEng   =       163.4843 KinEng   =        59.0287 Temp     =       236.6882 
PotEng   =       104.4556 E_bond   =        10.7134 E_angle  =        57.9605 
E_dihed  =         8.3153 E_impro  =         0.5658 E_vdwl   =        26.9006 
E_coul   =         0.0000 E_long   =         0.0000 Press    =        23.7573
------------ Step           7900 ----- CPU =    0.8306419 (sec) -------------
TotEng   =       175.3577 KinEng   =        66.6656 Temp     =       267.3101 
PotEng   =       108.6920 E_bond   =        11.3380 E_angle  =        56.6539 
E_dihed  =         9.1825 E_impro  =         1.1795 E_vdwl   =        30.3382 
E_coul   =         0.0000 E_long   =         0.0000 Press    =       129.3740
SHAKE stats (type/ave/delta/count) on step 8000
Bond:    3   1.08458   3.97591e-07       17
Bond:    7   1.1126    9.51268e-08       16
Bond:    9   1.03375   0                  1
------------ Step           8000 ----- CPU =    0.8422977 (sec) -------------
TotEng   =       179.3013 KinEng   =        67.2335 Temp     =       269.5869 
PotEng   =       112.0678 E_bond   =        13.0938 E_angle  =        63.7944 
E_dihed  =        10.7888 E_impro  =         1.1868 E_vdwl   =        23.2041 
E_coul   =         0.0000 E_long   =         0.0000 Press    =      -405.1606
------------ Step           8100 ----- CPU =    0.8538654 (sec) -------------
TotEng   =       172.8598 KinEng   =        55.6959 Temp     =       223.3246 
PotEng   =       117.1638 E_bond   =        10.9228 E_angle  =        61.9531 
E_dihed  =        12.0392 E_impro  =         0.3224 E_vdwl   =        31.9262 
E_coul   =         0.0000 E_long   =         0.0000 Press    =       195.4049
------------ Step           8200 ----- CPU =    0.8648181 (sec) -------------
TotEng   =       174.2961 KinEng   =        55.3329 Temp     =       221.8689 
PotEng   =       118.9632 E_bond   =        10.4547 E_angle  =        64.1258 
E_dihed  =         9.0635 E_impro  =         0.5207 E_vdwl   =        34.7985 
E_coul   =         0.0000 E_long   =         0.0000 Press    =       497.7604
------------ Step           8300 ----- CPU =    0.8785535 (sec) -------------
TotEng   =       180.6818 KinEng   =        73.6710 Temp     =       295.3994 
PotEng   =       107.0108 E_bond   =        13.4426 E_angle  =        54.3945 
E_dihed  =        10.6782 E_impro  =         0.0871 E_vdwl   =        28.4085 
E_coul   =         0.0000 E_long   =         0.0000 Press    =        -6.3152
------------ Step           8400 ----- CPU =    0.8897549 (sec) -------------
TotEng   =       175.2225 KinEng   =        66.8161 Temp     =       267.9133 
PotEng   =       108.4064 E_bond   =         9.5844 E_angle  =        56.3341 
[...]
------------ Step         106000 ----- CPU =     8.447268 (sec) -------------
TotEng   =       207.6086 KinEng   =        74.0891 Temp     =       297.0759 
PotEng   =       133.5195 E_bond   =        32.3687 E_angle  =        63.9743 
E_dihed  =        12.4227 E_impro  =         1.3416 E_vdwl   =        23.4123 
E_coul   =         0.0000 E_long   =         0.0000 Press    =      -234.9414 
Volume   =     59065.0733
------------ Step         106100 ----- CPU =     8.452536 (sec) -------------
TotEng   =       219.9949 KinEng   =        79.4285 Temp     =       318.4853 
PotEng   =       140.5665 E_bond   =        28.1770 E_angle  =        63.2218 
E_dihed  =        14.5776 E_impro  =         1.9737 E_vdwl   =        32.6163 
E_coul   =         0.0000 E_long   =         0.0000 Press    =       -50.2922 
Volume   =     59493.3320
------------ Step         106200 ----- CPU =     8.458518 (sec) -------------
TotEng   =       218.4462 KinEng   =        86.0426 Temp     =       345.0060 
PotEng   =       132.4036 E_bond   =        26.3057 E_angle  =        55.8284 
E_dihed  =        15.8316 E_impro  =         1.0301 E_vdwl   =        33.4079 
E_coul   =         0.0000 E_long   =         0.0000 Press    =        24.2946 
Volume   =     59616.6770
------------ Step         106300 ----- CPU =      8.46406 (sec) -------------
TotEng   =       207.6179 KinEng   =        73.7272 Temp     =       295.6250 
PotEng   =       133.8907 E_bond   =        30.4553 E_angle  =        65.2708 
E_dihed  =        11.7964 E_impro  =         1.7978 E_vdwl   =        24.5703 
E_coul   =         0.0000 E_long   =         0.0000 Press    =      -132.7983 
Volume   =     59637.4220
------------ Step         106400 ----- CPU =     8.471208 (sec) -------------
TotEng   =       203.5461 KinEng   =        70.0297 Temp     =       280.7990 
PotEng   =       133.5164 E_bond   =        22.7892 E_angle  =        71.2821 
E_dihed  =        10.3959 E_impro  =         2.4027 E_vdwl   =        26.6464 
E_coul   =         0.0000 E_long   =         0.0000 Press    =        17.8368 
Volume   =     59435.2214
SHAKE stats (type/ave/delta/count) on step 106500
Bond:    3   1.08458   2.11822e-06       17
Bond:    7   1.1126    3.91408e-06       16
Bond:    9   1.03375   0                  1
------------ Step         106500 ----- CPU =     8.478077 (sec) -------------
TotEng   =       220.1806 KinEng   =        79.8194 Temp     =       320.0527 
PotEng   =       140.3613 E_bond   =        29.3795 E_angle  =        72.0316 
E_dihed  =        15.6011 E_impro  =         1.1958 E_vdwl   =        22.1532 
E_coul   =         0.0000 E_long   =         0.0000 Press    =      -132.8116 
Volume   =     59327.4026
------------ Step         106600 ----- CPU =     8.485723 (sec) -------------
TotEng   =       230.3171 KinEng   =        84.8992 Temp     =       340.4213 
PotEng   =       145.4179 E_bond   =        29.3197 E_angle  =        76.4624 
E_dihed  =        13.0167 E_impro  =         1.0661 E_vdwl   =        25.5530 
E_coul   =         0.0000 E_long   =         0.0000 Press    =       -71.0812 
Volume   =     58991.5010
------------ Step         106700 ----- CPU =     8.491598 (sec) -------------
TotEng   =       223.2829 KinEng   =        75.3242 Temp     =       302.0285 
PotEng   =       147.9587 E_bond   =        29.2815 E_angle  =        71.1990 
E_dihed  =        18.0832 E_impro  =         1.0934 E_vdwl   =        28.3015 
E_coul   =         0.0000 E_long   =         0.0000 Press    =       -86.8877 
Volume   =     58628.1823
------------ Step         106800 ----- CPU =     8.498439 (sec) -------------
TotEng   =       212.0943 KinEng   =        70.9877 Temp     =       284.6402 
PotEng   =       141.1066 E_bond   =        27.2049 E_angle  =        70.4214 
E_dihed  =        15.2444 E_impro  =         1.7270 E_vdwl   =        26.5089 
E_coul   =         0.0000 E_long   =         0.0000 Press    =       138.4974 
Volume   =     58218.0395
------------ Step         106900 ----- CPU =     8.507139 (sec) -------------
TotEng   =       203.6538 KinEng   =        69.1576 Temp     =       277.3022 
PotEng   =       134.4962 E_bond   =        23.9624 E_angle  =        73.5538 
E_dihed  =        13.6820 E_impro  =         0.1658 E_vdwl   =        23.1322 
E_coul   =         0.0000 E_long   =         0.0000 Press    =        35.4888 
Volume   =     57915.0396
SHAKE stats (type/ave/delta/count) on step 107000
Bond:    3   1.08456   1.00433e-06       17
Bond:    7   1.11258   5.01408e-07       16
Bond:    9   1.03373   0                  1
------------ Step         107000 ----- CPU =     8.517393 (sec) -------------
TotEng   =       206.2478 KinEng   =        69.1160 Temp     =       277.1351 
PotEng   =       137.1318 E_bond   =        31.1460 E_angle  =        68.3944 
E_dihed  =        10.6283 E_impro  =         1.4396 E_vdwl   =        25.5235 
E_coul   =         0.0000 E_long   =         0.0000 Press    =      -199.5244 
Volume   =     57609.7313
------------ Step         107100 ----- CPU =     8.523744 (sec) -------------
TotEng   =       224.4699 KinEng   =        73.3503 Temp     =       294.1135 
PotEng   =       151.1196 E_bond   =        45.7179 E_angle  =        65.6918 
E_dihed  =        10.9021 E_impro  =         0.0717 E_vdwl   =        28.7362 
E_coul   =         0.0000 E_long   =         0.0000 Press    =      -140.1027 
Volume   =     57092.5988
------------ Step         107200 ----- CPU =     8.530599 (sec) -------------
TotEng   =       227.6239 KinEng   =        87.3126 Temp     =       350.0983 
PotEng   =       140.3114 E_bond   =        29.7581 E_angle  =        70.2837 
E_dihed  =        13.6899 E_impro  =         0.7704 E_vdwl   =        25.8093 
E_coul   =         0.0000 E_long   =         0.0000 Press    =       -47.7839 
Volume   =     56562.1593
------------ Step         107300 ----- CPU =     8.537586 (sec) -------------
TotEng   =       217.7275 KinEng   =        78.0960 Temp     =       313.1426 
PotEng   =       139.6314 E_bond   =        29.5089 E_angle  =        69.8706 
E_dihed  =        14.1469 E_impro  =         1.9113 E_vdwl   =        24.1937 
E_coul   =         0.0000 E_long   =         0.0000 Press    =      -273.3046 
Volume   =     56107.2311
------------ Step         107400 ----- CPU =     8.544487 (sec) -------------
TotEng   =       210.6969 KinEng   =        71.1151 Temp     =       285.1513 
PotEng   =       139.5818 E_bond   =        28.9319 E_angle  =        63.2707 
E_dihed  =        11.4899 E_impro  =         0.9732 E_vdwl   =        34.9161 
E_coul   =         0.0000 E_long   =         0.0000 Press    =        23.0294 
Volume   =     55382.8389
SHAKE stats (type/ave/delta/count) on step 107500
Bond:    3   1.08454   6.65172e-07       17
Bond:    7   1.11256   6.98786e-07       16
Bond:    9   1.03371   0                  1
------------ Step         107500 ----- CPU =     8.553466 (sec) -------------
TotEng   =       212.7447 KinEng   =        76.0400 Temp     =       304.8985 
PotEng   =       136.7047 E_bond   =        29.5223 E_angle  =        64.5119 
E_dihed  =        16.2333 E_impro  =         0.4941 E_vdwl   =        25.9431 
E_coul   =         0.0000 E_long   =         0.0000 Press    =       189.8991 
Volume   =     54749.6370
------------ Step         107600 ----- CPU =     8.561375 (sec) -------------
TotEng   =       223.8278 KinEng   =        78.2006 Temp     =       313.5621 
PotEng   =       145.6272 E_bond   =        33.6860 E_angle  =        70.9878 
E_dihed  =        13.4500 E_impro  =         1.0510 E_vdwl   =        26.4524 
E_coul   =         0.0000 E_long   =         0.0000 Press    =      -111.8491 
Volume   =     54482.2452
------------ Step         107700 ----- CPU =     8.568184 (sec) -------------
TotEng   =       231.9141 KinEng   =        82.6232 Temp     =       331.2954 
PotEng   =       149.2908 E_bond   =        32.1601 E_angle  =        69.4864 
E_dihed  =        15.2164 E_impro  =         1.2086 E_vdwl   =        31.2194 
E_coul   =         0.0000 E_long   =         0.0000 Press    =       -50.6727 
Volume   =     54164.1162
------------ Step         107800 ----- CPU =     8.575128 (sec) -------------
TotEng   =       216.7895 KinEng   =        74.9081 Temp     =       300.3601 
PotEng   =       141.8814 E_bond   =        25.0460 E_angle  =        68.6143 
E_dihed  =        11.7114 E_impro  =         0.5023 E_vdwl   =        36.0074 
E_coul   =         0.0000 E_long   =         0.0000 Press    =       131.7150 
Volume   =     53507.8243
------------ Step         107900 ----- CPU =     8.582325 (sec) -------------
TotEng   =       206.1867 KinEng   =        73.0551 Temp     =       292.9301 
PotEng   =       133.1316 E_bond   =        24.8346 E_angle  =        68.3163 
E_dihed  =        10.1495 E_impro  =         0.1572 E_vdwl   =        29.6740 
E_coul   =         0.0000 E_long   =         0.0000 Press    =       -95.4719 
Volume   =     53022.5134
SHAKE stats (type/ave/delta/count) on step 108000
Bond:    3   1.08454   5.54217e-07       17
Bond:    7   1.11256   5.70747e-07       16
Bond:    9   1.03371   0                  1
------------ Step         108000 ----- CPU =     8.589769 (sec) -------------
TotEng   =       209.0292 KinEng   =        81.4600 Temp     =       326.6311 
PotEng   =       127.5692 E_bond   =        21.1698 E_angle  =        61.8671 
E_dihed  =        13.2408 E_impro  =         0.8607 E_vdwl   =        30.4308 
E_coul   =         0.0000 E_long   =         0.0000 Press    =       189.0606 
Volume   =     52195.4684
------------ Step         108100 ----- CPU =     8.597178 (sec) -------------
TotEng   =       212.4797 KinEng   =        74.8253 Temp     =       300.0280 
PotEng   =       137.6544 E_bond   =        27.8231 E_angle  =        65.4950 
E_dihed  =        11.1052 E_impro  =         0.3518 E_vdwl   =        32.8794 
E_coul   =         0.0000 E_long   =         0.0000 Press    =       233.1239 
Volume   =     51552.1542
------------ Step         108200 ----- CPU =     8.604591 (sec) -------------
TotEng   =       217.9176 KinEng   =        80.9260 Temp     =       324.4901 
PotEng   =       136.9915 E_bond   =        23.8889 E_angle  =        71.1205 
E_dihed  =        10.6735 E_impro  =         0.4333 E_vdwl   =        30.8754 
E_coul   =         0.0000 E_long   =         0.0000 Press    =       296.7159 
Volume   =     50957.7685
------------ Step         108300 ----- CPU =     8.612533 (sec) -------------
TotEng   =       224.0412 KinEng   =        87.6703 Temp     =       351.5327 
PotEng   =       136.3709 E_bond   =        26.8101 E_angle  =        74.1546 
E_dihed  =         9.3205 E_impro  =         0.2083 E_vdwl   =        25.8774 
E_coul   =         0.0000 E_long   =         0.0000 Press    =      -169.2177 
Volume   =     50399.3559
------------ Step         108400 ----- CPU =     8.621313 (sec) -------------
TotEng   =       219.1416 KinEng   =        81.5339 Temp     =       326.9274 
PotEng   =       137.6077 E_bond   =        32.2426 E_angle  =        68.4310 
E_dihed  =        11.2304 E_impro  =         1.0719 E_vdwl   =        24.6317 
E_coul   =         0.0000 E_long   =         0.0000 Press    =      -154.1191 
Volume   =     49712.9456
SHAKE stats (type/ave/delta/count) on step 108500
Bond:    3   1.08452   5.38778e-07       17
Bond:    7   1.11254   6.26216e-07       16
Bond:    9   1.03369   0                  1
------------ Step         108500 ----- CPU =     8.632108 (sec) -------------
TotEng   =       203.2138 KinEng   =        70.2094 Temp     =       281.5195 
PotEng   =       133.0043 E_bond   =        27.5831 E_angle  =        68.8102 
E_dihed  =        11.4379 E_impro  =         0.5074 E_vdwl   =        24.6657 
E_coul   =         0.0000 E_long   =         0.0000 Press    =      -159.4182 
Volume   =     49076.8466
------------ Step         108600 ----- CPU =     8.639779 (sec) -------------
TotEng   =       200.8044 KinEng   =        69.5174 Temp     =       278.7446 
PotEng   =       131.2870 E_bond   =        26.0673 E_angle  =        64.5509 
E_dihed  =        12.7765 E_impro  =         1.2261 E_vdwl   =        26.6662 
E_coul   =         0.0000 E_long   =         0.0000 Press    =        52.4267 
Volume   =     48246.3843
------------ Step         108700 ----- CPU =     8.648486 (sec) -------------
TotEng   =       204.8879 KinEng   =        76.7148 Temp     =       307.6044 
PotEng   =       128.1731 E_bond   =        27.7264 E_angle  =        58.4978 
E_dihed  =        11.5299 E_impro  =         0.5895 E_vdwl   =        29.8295 
E_coul   =         0.0000 E_long   =         0.0000 Press    =       -18.6144 
Volume   =     47433.6555
------------ Step         108800 ----- CPU =     8.658647 (sec) -------------
TotEng   =       211.6660 KinEng   =        82.5277 Temp     =       330.9123 
PotEng   =       129.1384 E_bond   =        30.2746 E_angle  =        56.3996 
E_dihed  =        12.4494 E_impro  =         0.9396 E_vdwl   =        29.0752 
E_coul   =         0.0000 E_long   =         0.0000 Press    =       -44.0803 
Volume   =     46751.9987
------------ Step         108900 ----- CPU =     8.670327 (sec) -------------
TotEng   =       216.9817 KinEng   =        90.7791 Temp     =       363.9981 
PotEng   =       126.2026 E_bond   =        30.5009 E_angle  =        59.9264 
E_dihed  =         8.8083 E_impro  =         0.2049 E_vdwl   =        26.7621 
E_coul   =         0.0000 E_long   =         0.0000 Press    =        43.2139 
Volume   =     45992.3548
SHAKE stats (type/ave/delta/count) on step 109000
Bond:    3   1.08454   1.59338e-06       17
Bond:    7   1.11256   9.2858e-07        16
Bond:    9   1.03371   0                  1
------------ Step         109000 ----- CPU =     8.678845 (sec) -------------
TotEng   =       203.2187 KinEng   =        73.7760 Temp     =       295.8206 
PotEng   =       129.4427 E_bond   =        26.9382 E_angle  =        60.2941 
E_dihed  =        11.8957 E_impro  =         0.6345 E_vdwl   =        29.6801 
E_coul   =         0.0000 E_long   =         0.0000 Press    =       226.9734 
Volume   =     45346.7076
------------ Step         109100 ----- CPU =     8.687074 (sec) -------------
TotEng   =       193.4854 KinEng   =        65.6217 Temp     =       263.1240 
PotEng   =       127.8638 E_bond   =        28.1737 E_angle  =        55.8498 
E_dihed  =        11.6557 E_impro  =         0.1965 E_vdwl   =        31.9881 
E_coul   =         0.0000 E_long   =         0.0000 Press    =      -218.7233 
Volume   =     44913.3576
------------ Step         109200 ----- CPU =     8.697435 (sec) -------------
TotEng   =       196.5540 KinEng   =        70.7638 Temp     =       283.7424 
PotEng   =       125.7902 E_bond   =        29.0508 E_angle  =        59.7911 
E_dihed  =         9.1784 E_impro  =         0.0181 E_vdwl   =        27.7519 
E_coul   =         0.0000 E_long   =         0.0000 Press    =        54.1997 
Volume   =     44404.7040
------------ Step         109300 ----- CPU =     8.706725 (sec) -------------
TotEng   =       209.5210 KinEng   =        71.7643 Temp     =       287.7541 
PotEng   =       137.7567 E_bond   =        26.5785 E_angle  =        66.5918 
E_dihed  =         9.3857 E_impro  =         0.5431 E_vdwl   =        34.6576 
E_coul   =         0.0000 E_long   =         0.0000 Press    =       152.4519 
Volume   =     43902.2424
------------ Step         109400 ----- CPU =     8.714655 (sec) -------------
TotEng   =       214.6909 KinEng   =        77.3009 Temp     =       309.9542 
PotEng   =       137.3901 E_bond   =        25.8047 E_angle  =        66.5015 
E_dihed  =        10.0934 E_impro  =         0.1998 E_vdwl   =        34.7906 
E_coul   =         0.0000 E_long   =         0.0000 Press    =       183.6675 
Volume   =     43474.7035
SHAKE stats (type/ave/delta/count) on step 109500
Bond:    3   1.08453   1.49984e-07       17
Bond:    7   1.11255   1.03865e-07       16
Bond:    9   1.0337    0                  1
------------ Step         109500 ----- CPU =     8.722831 (sec) -------------
TotEng   =       211.8673 KinEng   =        73.9831 Temp     =       296.6510 
PotEng   =       137.8842 E_bond   =        32.9926 E_angle  =        63.3578 
E_dihed  =        11.7095 E_impro  =         0.3867 E_vdwl   =        29.4377 
E_coul   =         0.0000 E_long   =         0.0000 Press    =      -359.9500 
Volume   =     43152.5232
------------ Step         109600 ----- CPU =     8.730706 (sec) -------------
TotEng   =       210.9077 KinEng   =        77.1152 Temp     =       309.2096 
PotEng   =       133.7925 E_bond   =        26.5579 E_angle  =        66.5345 
E_dihed  =        12.3477 E_impro  =         2.0339 E_vdwl   =        26.3186 
E_coul   =         0.0000 E_long   =         0.0000 Press    =       133.4583 
Volume   =     42690.1636
------------ Step         109700 ----- CPU =     8.738863 (sec) -------------
TotEng   =       203.0265 KinEng   =        75.5371 Temp     =       302.8819 
PotEng   =       127.4895 E_bond   =        22.1840 E_angle  =        66.5386 
E_dihed  =         8.6463 E_impro  =         0.1776 E_vdwl   =        29.9430 
E_coul   =         0.0000 E_long   =         0.0000 Press    =       280.7184 
Volume   =     42353.4102
------------ Step         109800 ----- CPU =     8.746804 (sec) -------------
TotEng   =       190.8464 KinEng   =        60.8248 Temp     =       243.8899 
PotEng   =       130.0217 E_bond   =        25.5756 E_angle  =        64.9253 
E_dihed  =        12.5314 E_impro  =         0.6792 E_vdwl   =        26.3103 
E_coul   =         0.0000 E_long   =         0.0000 Press    =      -139.7116 
Volume   =     42168.6152
------------ Step         109900 ----- CPU =       8.7548 (sec) -------------
TotEng   =       197.0398 KinEng   =        69.0813 Temp     =       276.9961 
PotEng   =       127.9585 E_bond   =        26.1827 E_angle  =        63.7682 
E_dihed  =        11.7379 E_impro  =         0.9050 E_vdwl   =        25.3647 
E_coul   =         0.0000 E_long   =         0.0000 Press    =        -1.2565 
Volume   =     41765.4317
SHAKE stats (type/ave/delta/count) on step 110000
Bond:    3   1.08457   4.52552e-07       17
Bond:    7   1.11259   4.99955e-07       16
Bond:    9   1.03374   0                  1
------------ Step         110000 ----- CPU =     8.764407 (sec) -------------
TotEng   =       209.6435 KinEng   =        73.7798 Temp     =       295.8358 
PotEng   =       135.8637 E_bond   =        30.1208 E_angle  =        68.4478 
E_dihed  =        12.4505 E_impro  =         0.3914 E_vdwl   =        24.4531 
E_coul   =         0.0000 E_long   =         0.0000 Press    =        62.7392 
Volume   =     41516.2942
Loop time of 8.76445 on 16 procs for 100000 steps with 96 atoms

Performance: 985.801 ns/day, 0.024 hours/ns, 11409.732 timesteps/s, 1.095 Matom-step/s
98.2% CPU use with 16 MPI tasks x 1 OpenMP threads

MPI task timing breakdown:
Section |  min time  |  avg time  |  max time  |%varavg| %total
---------------------------------------------------------------
Pair    | 0.12272    | 0.30987    | 1.0009     |  42.6 |  3.54
Bond    | 0.045631   | 0.14766    | 0.47435    |  33.5 |  1.68
Neigh   | 0.1758     | 0.17941    | 0.18532    |   0.8 |  2.05
Comm    | 2.0032     | 2.7731     | 4.3285     |  42.1 | 31.64
Output  | 0.30617    | 0.3066     | 0.31019    |   0.2 |  3.50
Modify  | 3.0194     | 4.7789     | 5.7338     |  36.8 | 54.53
Other   |            | 0.2689     |            |       |  3.07

Nlocal:              6 ave          52 max           0 min
Histogram: 11 3 1 0 0 0 0 0 0 1
Nghost:        211.312 ave         360 max          70 min
Histogram: 1 3 0 4 0 4 0 0 2 2
Neighs:        157.875 ave        1611 max           0 min
Histogram: 12 2 1 0 0 0 0 0 0 1

Total # of neighbors = 2526
Ave neighs/atom = 26.3125
Ave special neighs/atom = 5.6458333
Neighbor list builds = 1490
Dangerous builds = 0
unfix                2
undump               1
unfix                shakeH
Total wall time: 0:00:10
